       N       E                     dE             d eps       ncg     rms          rms(c)
DAV:   1     0.209220914770E+04    0.20922E+04   -0.52887E+04   600   0.940E+02
DAV:   2     0.482392929224E+03   -0.16098E+04   -0.14891E+04   848   0.189E+02
DAV:   3    -0.312798704296E+03   -0.79519E+03   -0.76799E+03   696   0.138E+02
DAV:   4    -0.443921449851E+03   -0.13112E+03   -0.12968E+03   728   0.769E+01
DAV:   5    -0.448412190934E+03   -0.44907E+01   -0.44018E+01   648   0.152E+01    0.403E+01
DAV:   6    -0.442944436254E+03    0.54678E+01   -0.15479E+02   724   0.459E+01    0.995E+01
DAV:   7    -0.432400449373E+03    0.10544E+02   -0.50098E+01   728   0.281E+01    0.699E+01
DAV:   8    -0.410117141973E+03    0.22283E+02   -0.10411E+02   634   0.779E+01    0.345E+01
DAV:   9    -0.398704916489E+03    0.11412E+02   -0.36486E+01   704   0.165E+01    0.206E+01
DAV:  10    -0.399092198050E+03   -0.38728E+00   -0.13159E+01   784   0.162E+01    0.141E+01
DAV:  11    -0.402626452120E+03   -0.35343E+01   -0.23479E+00   672   0.397E+00    0.975E+00
DAV:  12    -0.406082042078E+03   -0.34556E+01   -0.40987E+00   696   0.588E+00    0.512E+00
DAV:  13    -0.406657640665E+03   -0.57560E+00   -0.70548E-01   680   0.373E+00    0.422E+00
DAV:  14    -0.407219384205E+03   -0.56174E+00   -0.31796E-01   698   0.264E+00    0.369E+00
DAV:  15    -0.407671481484E+03   -0.45210E+00   -0.13436E-01   696   0.138E+00    0.338E+00
DAV:  16    -0.407838343938E+03   -0.16686E+00   -0.36701E-02   692   0.101E+00    0.270E+00
DAV:  17    -0.407952584497E+03   -0.11424E+00   -0.21614E-02   692   0.852E-01    0.219E+00
DAV:  18    -0.408024242924E+03   -0.71658E-01   -0.10140E-02   716   0.539E-01    0.183E+00
DAV:  19    -0.408191603327E+03   -0.16736E+00   -0.29534E-02   648   0.117E+00    0.112E+00
DAV:  20    -0.408441545000E+03   -0.24994E+00   -0.86586E-02   668   0.171E+00    0.274E-01
DAV:  21    -0.408505913979E+03   -0.64369E-01   -0.19624E-02   556   0.421E-01    0.187E-01
DAV:  22    -0.408555634009E+03   -0.49720E-01   -0.20452E-03   608   0.153E-01    0.160E-01
DAV:  23    -0.408718560605E+03   -0.16293E+00   -0.68599E-03   636   0.315E-01    0.265E-01
DAV:  24    -0.408799009333E+03   -0.80449E-01   -0.34826E-03   690   0.239E-01    0.356E-01
DAV:  25    -0.408824902654E+03   -0.25893E-01   -0.12198E-03   720   0.123E-01    0.305E-01
DAV:  26    -0.408839408804E+03   -0.14506E-01   -0.74793E-04   720   0.142E-01    0.203E-01
DAV:  27    -0.408849258898E+03   -0.98501E-02   -0.48948E-04   744   0.996E-02    0.135E-01
DAV:  28    -0.408859865225E+03   -0.10606E-01   -0.37323E-04   712   0.813E-02    0.756E-02
DAV:  29    -0.408866161284E+03   -0.62961E-02   -0.34386E-04   698   0.855E-02    0.194E-02
DAV:  30    -0.408867811072E+03   -0.16498E-02   -0.16232E-04   736   0.519E-02    0.171E-02
DAV:  31    -0.408868432224E+03   -0.62115E-03   -0.23934E-05   664   0.132E-02    0.206E-02
DAV:  32    -0.408868673063E+03   -0.24084E-03   -0.26336E-06   728   0.596E-03    0.179E-02
DAV:  33    -0.408868946558E+03   -0.27350E-03   -0.53368E-06   744   0.119E-02    0.103E-02
DAV:  34    -0.408869230022E+03   -0.28346E-03   -0.64169E-06   696   0.765E-03    0.672E-03
DAV:  35    -0.408869316124E+03   -0.86102E-04   -0.11975E-06   656   0.330E-03    0.544E-03
DAV:  36    -0.408869427864E+03   -0.11174E-03   -0.15555E-06   664   0.442E-03    0.289E-03
DAV:  37    -0.408869498746E+03   -0.70882E-04   -0.10395E-06   674   0.348E-03    0.880E-04
DAV:  38    -0.408869532452E+03   -0.33706E-04   -0.38567E-07   664   0.231E-03    0.678E-04
DAV:  39    -0.408869548778E+03   -0.16326E-04   -0.13433E-07   578   0.883E-04    0.612E-04
DAV:  40    -0.408869557745E+03   -0.89670E-05   -0.77576E-08   530   0.742E-04    0.331E-04
DAV:  41    -0.408869560893E+03   -0.31485E-05   -0.32123E-08   474   0.384E-04    0.364E-04
DAV:  42    -0.408869562143E+03   -0.12493E-05   -0.70727E-09   410   0.225E-04    0.229E-04
DAV:  43    -0.408869562785E+03   -0.64204E-06   -0.54877E-09   424   0.179E-04    0.219E-04
DAV:  44    -0.408869563305E+03   -0.52022E-06   -0.46209E-09   386   0.304E-04    0.623E-05
DAV:  45    -0.408869563521E+03   -0.21608E-06   -0.27764E-09   408   0.121E-04    0.358E-05
DAV:  46    -0.408869563695E+03   -0.17420E-06   -0.52610E-10   400   0.847E-05    0.438E-05
DAV:  47    -0.408869563780E+03   -0.84279E-07    0.13111E-10   384   0.647E-05    0.319E-05
DAV:  48    -0.408869563862E+03   -0.82528E-07    0.22653E-10   392   0.572E-05    0.186E-05
DAV:  49    -0.408869563899E+03   -0.36944E-07    0.43486E-10   400   0.523E-05    0.247E-05
DAV:  50    -0.408869563927E+03   -0.28034E-07    0.46161E-10   400   0.336E-05    0.287E-05
DAV:  51    -0.408869563929E+03   -0.21319E-08    0.61783E-10   370   0.508E-05
   1 F= -.42236133E+03 E0= -.42236133E+03  d E =-.306795E-11  mag=     2.0000
