 vasp.5.4.4.18Apr17-6-g9f103f2a35 (build Nov 21 2022 13:57:21) gamma-only       
  
 executed on             LinuxIFC date 2025.10.19  21:52:51
 running on   64 total cores
 distrk:  each k-point on   64 cores,    1 groups
 distr:  one band on NCORES_PER_BAND=  32 cores,    2 groups


--------------------------------------------------------------------------------------------------------


 INCAR:
 POTCAR:    PAW_PBE C 08Apr2002                   
 POTCAR:    PAW_PBE Fe 06Sep2000                  
 POTCAR:    PAW_PBE H 15Jun2001                   
 POTCAR:    PAW_PBE N 08Apr2002                   

 ----------------------------------------------------------------------------- 
|                                                                             |
|           W    W    AA    RRRRR   N    N  II  N    N   GGGG   !!!           |
|           W    W   A  A   R    R  NN   N  II  NN   N  G    G  !!!           |
|           W    W  A    A  R    R  N N  N  II  N N  N  G       !!!           |
|           W WW W  AAAAAA  RRRRR   N  N N  II  N  N N  G  GGG   !            |
|           WW  WW  A    A  R   R   N   NN  II  N   NN  G    G                |
|           W    W  A    A  R    R  N    N  II  N    N   GGGG   !!!           |
|                                                                             |
|      For optimal performance we recommend to set                            |
|        NCORE= 4 - approx SQRT( number of cores)                             |
|      NCORE specifies how many cores store one orbital (NPAR=cpu/NCORE).     |
|      This setting can  greatly improve the performance of VASP for DFT.     |
|      The default,   NCORE=1            might be grossly inefficient         |
|      on modern multi-core architectures or massively parallel machines.     |
|      Do your own testing !!!!                                               |
|      Unfortunately you need to use the default for GW and RPA calculations. |
|      (for HF NCORE is supported but not extensively tested yet)             |
|                                                                             |
 ----------------------------------------------------------------------------- 

 POTCAR:    PAW_PBE C 08Apr2002                   
   VRHFIN =C: s2p2                                                              
   LEXCH  = PE                                                                  
   EATOM  =   147.1560 eV,   10.8157 Ry                                         
                                                                                
   TITEL  = PAW_PBE C 08Apr2002                                                 
   LULTRA =        F    use ultrasoft PP ?                                      
   IUNSCR =        1    unscreen: 0-lin 1-nonlin 2-no                           
   RPACOR =    1.200    partial core radius                                     
   POMASS =   12.011; ZVAL   =    4.000    mass and valenz                      
   RCORE  =    1.500    outmost cutoff radius                                   
   RWIGS  =    1.630; RWIGS  =    0.863    wigner-seitz radius (au A)           
   ENMAX  =  400.000; ENMIN  =  300.000 eV                                      
   ICORE  =        2    local potential                                         
   LCOR   =        T    correct aug charges                                     
   LPAW   =        T    paw PP                                                  
   EAUG   =  644.873                                                            
   DEXC   =    0.000                                                            
   RMAX   =    1.529    core radius for proj-oper                               
   RAUG   =    1.300    factor for augmentation sphere                          
   RDEP   =    1.501    radius for radial grids                                 
   RDEPT  =    1.300    core radius for aug-charge                              
                                                                                
   Atomic configuration                                                         
    4 entries                                                                   
     n  l   j            E        occ.                                          
     1  0  0.50      -273.3789   2.0000                                         
     2  0  0.50       -13.7508   2.0000                                         
     2  1  0.50        -5.2854   2.0000                                         
     3  2  1.50        -5.4423   0.0000                                         
   Description                                                                  
     l       E           TYP  RCUT    TYP  RCUT                                 
     0    -13.7508458     23  1.200                                             
     0     -8.2022199     23  1.200                                             
     1     -5.2854383     23  1.500                                             
     1     34.0145650     23  1.500                                             
     2     -5.4423304      7  1.500                                             
  local pseudopotential read in
  partial core-charges read in
  partial kinetic energy density read in
  atomic valenz-charges read in
  non local Contribution for L=           0  read in
    real space projection operators read in
  non local Contribution for L=           0  read in
    real space projection operators read in
  non local Contribution for L=           1  read in
    real space projection operators read in
  non local Contribution for L=           1  read in
    real space projection operators read in
    PAW grid and wavefunctions read in
 
   number of l-projection  operators is LMAX  =           4
   number of lm-projection operators is LMMAX =           8
 
 POTCAR:    PAW_PBE Fe 06Sep2000                  
   VRHFIN =Fe:  d7 s1                                                           
   LEXCH  = PE                                                                  
   EATOM  =   594.3153 eV,   43.6809 Ry                                         
                                                                                
   TITEL  = PAW_PBE Fe 06Sep2000                                                
   LULTRA =        F    use ultrasoft PP ?                                      
   IUNSCR =        1    unscreen: 0-lin 1-nonlin 2-no                           
   RPACOR =    2.000    partial core radius                                     
   POMASS =   55.847; ZVAL   =    8.000    mass and valenz                      
   RCORE  =    2.300    outmost cutoff radius                                   
   RWIGS  =    2.460; RWIGS  =    1.302    wigner-seitz radius (au A)           
   ENMAX  =  267.882; ENMIN  =  200.911 eV                                      
   RCLOC  =    1.701    cutoff for local pot                                    
   LCOR   =        T    correct aug charges                                     
   LPAW   =        T    paw PP                                                  
   EAUG   =  511.368                                                            
   DEXC   =    0.000                                                            
   RMAX   =    2.356    core radius for proj-oper                               
   RAUG   =    1.300    factor for augmentation sphere                          
   RDEP   =    2.442    radius for radial grids                                 
   RDEPT  =    1.890    core radius for aug-charge                              
                                                                                
   Atomic configuration                                                         
    9 entries                                                                   
     n  l   j            E        occ.                                          
     1  0  0.50     -6993.8440   2.0000                                         
     2  0  0.50      -814.6047   2.0000                                         
     2  1  1.50      -693.3689   6.0000                                         
     3  0  0.50       -89.4732   2.0000                                         
     3  1  1.50       -55.6373   6.0000                                         
     3  2  2.50        -3.8151   7.0000                                         
     4  0  0.50        -4.2551   1.0000                                         
     4  1  1.50        -3.4015   0.0000                                         
     4  3  2.50        -1.3606   0.0000                                         
   Description                                                                  
     l       E           TYP  RCUT    TYP  RCUT                                 
     2     -3.8151135     23  2.300                                             
     2     -5.1756961     23  2.300                                             
     0     -4.2550963     23  2.300                                             
     0      7.2035603     23  2.300                                             
     1     -2.7211652     23  2.300                                             
     1     18.4316424     23  2.300                                             
  local pseudopotential read in
  partial core-charges read in
  partial kinetic energy density read in
  atomic valenz-charges read in
  non local Contribution for L=           2  read in
    real space projection operators read in
  non local Contribution for L=           2  read in
    real space projection operators read in
  non local Contribution for L=           0  read in
    real space projection operators read in
  non local Contribution for L=           0  read in
    real space projection operators read in
  non local Contribution for L=           1  read in
    real space projection operators read in
  non local Contribution for L=           1  read in
    real space projection operators read in
    PAW grid and wavefunctions read in
 
   number of l-projection  operators is LMAX  =           6
   number of lm-projection operators is LMMAX =          18
 
 POTCAR:    PAW_PBE H 15Jun2001                   
   VRHFIN =H: ultrasoft test                                                    
   LEXCH  = PE                                                                  
   EATOM  =    12.4884 eV,    0.9179 Ry                                         
                                                                                
   TITEL  = PAW_PBE H 15Jun2001                                                 
   LULTRA =        F    use ultrasoft PP ?                                      
   IUNSCR =        0    unscreen: 0-lin 1-nonlin 2-no                           
   RPACOR =    0.000    partial core radius                                     
   POMASS =    1.000; ZVAL   =    1.000    mass and valenz                      
   RCORE  =    1.100    outmost cutoff radius                                   
   RWIGS  =    0.700; RWIGS  =    0.370    wigner-seitz radius (au A)           
   ENMAX  =  250.000; ENMIN  =  200.000 eV                                      
   RCLOC  =    0.701    cutoff for local pot                                    
   LCOR   =        T    correct aug charges                                     
   LPAW   =        T    paw PP                                                  
   EAUG   =  400.000                                                            
   RMAX   =    1.123    core radius for proj-oper                               
   RAUG   =    1.200    factor for augmentation sphere                          
   RDEP   =    1.112    radius for radial grids                                 
   RDEPT  =    0.926    core radius for aug-charge                              
                                                                                
   Atomic configuration                                                         
    2 entries                                                                   
     n  l   j            E        occ.                                          
     1  0  0.50        -6.4927   1.0000                                         
     2  1  0.50        -3.4015   0.0000                                         
   Description                                                                  
     l       E           TYP  RCUT    TYP  RCUT                                 
     0     -6.4927494     23  1.100                                             
     0      6.8029130     23  1.100                                             
     1     -4.0817478     23  1.100                                             
  local pseudopotential read in
  atomic valenz-charges read in
  non local Contribution for L=           0  read in
    real space projection operators read in
  non local Contribution for L=           0  read in
    real space projection operators read in
  non local Contribution for L=           1  read in
    real space projection operators read in
    PAW grid and wavefunctions read in
 
   number of l-projection  operators is LMAX  =           3
   number of lm-projection operators is LMMAX =           5
 
 POTCAR:    PAW_PBE N 08Apr2002                   
   VRHFIN =N: s2p3                                                              
   LEXCH  = PE                                                                  
   EATOM  =   264.5486 eV,   19.4438 Ry                                         
                                                                                
   TITEL  = PAW_PBE N 08Apr2002                                                 
   LULTRA =        F    use ultrasoft PP ?                                      
   IUNSCR =        1    unscreen: 0-lin 1-nonlin 2-no                           
   RPACOR =    1.200    partial core radius                                     
   POMASS =   14.001; ZVAL   =    5.000    mass and valenz                      
   RCORE  =    1.500    outmost cutoff radius                                   
   RWIGS  =    1.400; RWIGS  =    0.741    wigner-seitz radius (au A)           
   ENMAX  =  400.000; ENMIN  =  300.000 eV                                      
   ICORE  =        2    local potential                                         
   LCOR   =        T    correct aug charges                                     
   LPAW   =        T    paw PP                                                  
   EAUG   =  627.112                                                            
   DEXC   =    0.000                                                            
   RMAX   =    1.529    core radius for proj-oper                               
   RAUG   =    1.300    factor for augmentation sphere                          
   RDEP   =    1.514    radius for radial grids                                 
   RDEPT  =    1.338    core radius for aug-charge                              
                                                                                
   Atomic configuration                                                         
    4 entries                                                                   
     n  l   j            E        occ.                                          
     1  0  0.50      -384.7179   2.0000                                         
     2  0  0.50       -18.5828   2.0000                                         
     2  1  0.50        -7.0898   3.0000                                         
     3  2  1.50        -6.8029   0.0000                                         
   Description                                                                  
     l       E           TYP  RCUT    TYP  RCUT                                 
     0    -18.5828119     23  1.200                                             
     0    -13.5018863     23  1.200                                             
     1     -7.0897853     23  1.500                                             
     1      9.5240782     23  1.500                                             
     2     -6.8029130      7  1.500                                             
  local pseudopotential read in
  partial core-charges read in
  partial kinetic energy density read in
  atomic valenz-charges read in
  non local Contribution for L=           0  read in
    real space projection operators read in
  non local Contribution for L=           0  read in
    real space projection operators read in
  non local Contribution for L=           1  read in
    real space projection operators read in
  non local Contribution for L=           1  read in
    real space projection operators read in
    PAW grid and wavefunctions read in
 
   number of l-projection  operators is LMAX  =           4
   number of lm-projection operators is LMMAX =           8
 
 Optimization of the real space projectors (new method)

 maximal supplied QI-value         = 25.13
 optimisation between [QCUT,QGAM] = [ 11.31, 22.87] = [ 35.82,146.48] Ry 
 Optimized for a Real-space Cutoff    1.00 Angstroem

   l    n(q)    QCUT    max X(q) W(low)/X(q) W(high)/X(q)  e(spline) 
   0      7    11.310   115.676    0.43E-03    0.13E-02    0.19E-06
   0      7    11.310    87.132    0.43E-03    0.13E-02    0.18E-06
   1      6    11.310     4.429    0.42E-03    0.74E-03    0.11E-06
   1      6    11.310     2.733    0.34E-03    0.55E-03    0.92E-07
 Optimization of the real space projectors (new method)

 maximal supplied QI-value         = 16.25
 optimisation between [QCUT,QGAM] = [ 11.38, 22.75] = [ 36.24,144.96] Ry 
 Optimized for a Real-space Cutoff    1.39 Angstroem

   l    n(q)    QCUT    max X(q) W(low)/X(q) W(high)/X(q)  e(spline) 
   2      8    11.376    80.901    0.45E-03    0.44E-04    0.21E-06
   2      8    11.376    75.754    0.45E-03    0.45E-04    0.22E-06
   0      9    11.376    58.752    0.65E-04    0.95E-04    0.17E-06
   0      9    11.376    30.679    0.59E-04    0.87E-04    0.16E-06
   1      9    11.376    17.977    0.38E-03    0.10E-03    0.14E-06
   1      9    11.376    13.559    0.31E-03    0.90E-04    0.12E-06
 Optimization of the real space projectors (new method)

 maximal supplied QI-value         = 34.20
 optimisation between [QCUT,QGAM] = [ 11.29, 22.57] = [ 35.68,142.71] Ry 
 Optimized for a Real-space Cutoff    1.16 Angstroem

   l    n(q)    QCUT    max X(q) W(low)/X(q) W(high)/X(q)  e(spline) 
   0      8    11.287    19.460    0.40E-03    0.73E-03    0.16E-06
   0      8    11.287    12.209    0.38E-03    0.70E-03    0.15E-06
   1      7    11.287     4.655    0.22E-03    0.25E-04    0.22E-06
 Optimization of the real space projectors (new method)

 maximal supplied QI-value         = 25.13
 optimisation between [QCUT,QGAM] = [ 11.31, 22.87] = [ 35.82,146.48] Ry 
 Optimized for a Real-space Cutoff    1.27 Angstroem

   l    n(q)    QCUT    max X(q) W(low)/X(q) W(high)/X(q)  e(spline) 
   0      9    11.310    79.467    0.75E-04    0.16E-03    0.36E-06
   0      9    11.310    66.151    0.74E-04    0.16E-03    0.36E-06
   1      8    11.310    17.416    0.35E-03    0.12E-03    0.95E-06
   1      8    11.310    12.382    0.37E-03    0.13E-03    0.98E-06

 ----------------------------------------------------------------------------- 
|                                                                             |
|  ADVICE TO THIS USER RUNNING 'VASP/VAMP'   (HEAR YOUR MASTER'S VOICE ...):  |
|                                                                             |
|      You enforced a specific xc-type in the INCAR file,                     |
|      a different type was found on the POTCAR file                          |
|          I HOPE YOU KNOW, WHAT YOU ARE  DOING                               |
|                                                                             |
 ----------------------------------------------------------------------------- 

  PAW_PBE C 08Apr2002                   :
 energy of atom  1       EATOM= -147.1560
 kinetic energy error for atom=    0.0076 (will be added to EATOM!!)
  PAW_PBE Fe 06Sep2000                  :
 energy of atom  2       EATOM= -594.3153
 kinetic energy error for atom=    0.0026 (will be added to EATOM!!)
  PAW_PBE H 15Jun2001                   :
 energy of atom  3       EATOM=  -12.4884
 kinetic energy error for atom=    0.0020 (will be added to EATOM!!)
  PAW_PBE N 08Apr2002                   :
 energy of atom  4       EATOM= -264.5486
 kinetic energy error for atom=    0.0138 (will be added to EATOM!!)
 
 
 POSCAR: C  Fe H  N                              
  positions in direct lattice
  No initial velocities read in
 exchange correlation table for  LEXCH =        9
   RHO(1)=    0.500       N(1)  =     2000
   RHO(2)=  100.500       N(2)  =     4000
 


--------------------------------------------------------------------------------------------------------


 ion  position               nearest neighbor table
   1  0.634  0.327  0.500-  44 1.09  22 1.43  35 1.43
   2  0.522  0.696  0.500-  36 1.43  34 1.43  31 1.43
   3  0.536  0.291  0.500-  40 1.09  23 1.43  22 1.43
   4  0.424  0.660  0.500-  20 1.43  32 1.43  36 1.43
   5  0.655  0.436  0.500-  28 1.43  25 1.43  35 1.43
   6  0.557  0.401  0.500-  56 1.39  28 1.43  22 1.43  37 2.57
   7  0.459  0.366  0.500-  56 1.42  26 1.43  23 1.43
   8  0.362  0.331  0.500-  17 1.43  24 1.43  26 1.43
   9  0.676  0.546  0.500-  29 1.43  25 1.43  27 1.43
  10  0.438  0.256  0.500-  43 1.09  24 1.43  23 1.43
  11  0.696  0.656  0.500-  38 1.09  30 1.43  27 1.43
  12  0.599  0.621  0.500-  31 1.43  30 1.43  29 1.43
  13  0.403  0.550  0.500-  57 1.39  33 1.43  32 1.43  37 2.57
  14  0.306  0.515  0.500-  42 1.09  33 1.43  21 1.43
  15  0.620  0.731  0.500-  45 1.09  34 1.43  30 1.43
  16  0.285  0.405  0.500-  39 1.09  21 1.43  17 1.43
  17  0.304  0.344  0.500-  50 1.09   8 1.43  16 1.43
  18  0.327  0.625  0.500-  53 1.09  33 1.43  20 1.43
  19  0.383  0.441  0.500-  57 1.42  21 1.43  26 1.43
  20  0.366  0.673  0.500-  41 1.09   4 1.43  18 1.43
  21  0.324  0.454  0.500-  19 1.43  16 1.43  14 1.43
  22  0.576  0.340  0.500-   1 1.43   3 1.43   6 1.43
  23  0.478  0.304  0.500-   3 1.43  10 1.43   7 1.43
  24  0.380  0.269  0.500-  48 1.09  10 1.43   8 1.43
  25  0.694  0.485  0.500-  49 1.09   9 1.43   5 1.43
  26  0.401  0.379  0.500-   7 1.43   8 1.43  19 1.43
  27  0.715  0.595  0.500-  51 1.09   9 1.43  11 1.43
  28  0.597  0.450  0.500-  54 1.39   5 1.43   6 1.43  37 2.57
  29  0.617  0.559  0.500-  54 1.42   9 1.43  12 1.43
  30  0.638  0.669  0.500-  11 1.43  12 1.43  15 1.43
  31  0.541  0.634  0.500-  55 1.42  12 1.43   2 1.43
  32  0.443  0.599  0.500-  55 1.39   4 1.43  13 1.43  37 2.57
  33  0.345  0.564  0.500-  13 1.43  18 1.43  14 1.43
  34  0.562  0.744  0.500-  52 1.09  15 1.43   2 1.43
  35  0.673  0.375  0.500-  47 1.09   1 1.43   5 1.43
  36  0.464  0.709  0.500-  46 1.09   2 1.43   4 1.43
  37  0.500  0.500  0.500-  57 1.92  54 1.92  56 1.92  55 1.92   6 2.57  32 2.57  28 2.57  13 2.57

  38  0.726  0.693  0.500-  11 1.09
  39  0.241  0.416  0.500-  16 1.09
  40  0.550  0.244  0.500-   3 1.09
  41  0.352  0.721  0.500-  20 1.09
  42  0.261  0.525  0.500-  14 1.09
  43  0.453  0.209  0.500-  10 1.09
  44  0.648  0.279  0.500-   1 1.09
  45  0.650  0.767  0.500-  15 1.09
  46  0.450  0.756  0.500-  36 1.09
  47  0.718  0.365  0.500-  35 1.09
  48  0.350  0.233  0.500-  24 1.09
  49  0.739  0.475  0.500-  25 1.09
  50  0.274  0.307  0.500-  17 1.09
  51  0.759  0.584  0.500-  27 1.09
  52  0.547  0.791  0.500-  34 1.09
  53  0.282  0.635  0.500-  18 1.09
  54  0.580  0.510  0.500-  28 1.39  29 1.42  37 1.92
  55  0.500  0.587  0.500-  32 1.39  31 1.42  37 1.92
  56  0.500  0.413  0.500-   6 1.39   7 1.42  37 1.92
  57  0.420  0.490  0.500-  13 1.39  19 1.42  37 1.92
 
  LATTYP: Found a simple orthorhombic cell.
 ALAT       =    16.0000000000
 B/A-ratio  =     1.3750000000
 C/A-ratio  =     1.5000000000
  
  Lattice vectors:
  
 A1 = (   0.0000000000,   0.0000000000, -16.0000000000)
 A2 = (   0.0000000000, -22.0000000000,   0.0000000000)
 A3 = ( -24.0000000000,   0.0000000000,   0.0000000000)


Analysis of symmetry for initial positions (statically):
=====================================================================
 Subroutine PRICEL returns:
 Original cell was already a primitive cell.
 

 Routine SETGRP: Setting up the symmetry group for a 
 simple orthorhombic supercell.


 Subroutine GETGRP returns: Found  4 space group operations
 (whereof  4 operations were pure point group operations)
 out of a pool of  8 trial point group operations.


The static configuration has the point symmetry C_2h.


Analysis of symmetry for dynamics (positions and initial velocities):
=====================================================================
 Subroutine PRICEL returns:
 Original cell was already a primitive cell.
 

 Routine SETGRP: Setting up the symmetry group for a 
 simple orthorhombic supercell.


 Subroutine GETGRP returns: Found  4 space group operations
 (whereof  4 operations were pure point group operations)
 out of a pool of  8 trial point group operations.


The dynamic configuration has the point symmetry C_2h.


Analysis of constrained symmetry for selective dynamics:
=====================================================================
 Subroutine PRICEL returns:
 Original cell was already a primitive cell.
 

 Routine SETGRP: Setting up the symmetry group for a 
 simple orthorhombic supercell.


 Subroutine GETGRP returns: Found  4 space group operations
 (whereof  4 operations were pure point group operations)
 out of a pool of  8 trial point group operations.


The constrained configuration has the point symmetry C_2h.


Analysis of structural, dynamic, and magnetic symmetry:
=====================================================================
 Subroutine PRICEL returns:
 Original cell was already a primitive cell.
 

 Routine SETGRP: Setting up the symmetry group for a 
 simple orthorhombic supercell.


 Subroutine GETGRP returns: Found  4 space group operations
 (whereof  4 operations were pure point group operations)
 out of a pool of  8 trial point group operations.


The magnetic configuration has the point symmetry C_2h.


 Subroutine INISYM returns: Found  4 space group operations
 (whereof  4 operations are pure point group operations),
 and found     1 'primitive' translations

 
 
 KPOINTS: K-Spacing Value to Generate K-Mesh: 0.03

Automatic generation of k-mesh.
Space group operators:
 irot       det(A)        alpha          n_x          n_y          n_z        tau_x        tau_y        tau_z
    1     1.000000     0.000000     1.000000     0.000000     0.000000     0.000000     0.000000     0.000000
    2    -1.000000     0.000000     1.000000     0.000000     0.000000     0.000000     0.000000     0.000000
    3     1.000000   180.000000     0.000000     0.000000     1.000000     0.000000     0.000000     0.000000
    4    -1.000000   180.000000     0.000000     0.000000     1.000000     0.000000     0.000000     0.000000
 
 Subroutine IBZKPT returns following result:
 ===========================================
 
 Found      1 irreducible k-points:
 
 Following reciprocal coordinates:
            Coordinates               Weight
  0.000000  0.000000  0.000000      1.000000
 
 Following cartesian coordinates:
            Coordinates               Weight
  0.000000  0.000000  0.000000      1.000000
 


--------------------------------------------------------------------------------------------------------




 Dimension of arrays:
   k-points           NKPTS =      1   k-points in BZ     NKDIM =      1   number of bands    NBANDS=    126
   number of dos      NEDOS =   2001   number of ions     NIONS =     57
   non local maximal  LDIM  =      6   non local SUM 2l+1 LMDIM =     18
   total plane-waves  NPLWV = ******
   max r-space proj   IRMAX =   2062   max aug-charges    IRDMAX=   6574
   dimension x,y,z NGX =   140 NGY =  120 NGZ =   90
   dimension x,y,z NGXF=   280 NGYF=  240 NGZF=  180
   support grid    NGXF=   280 NGYF=  240 NGZF=  180
   ions per type =              36   1  16   4
   NGX,Y,Z   is equivalent  to a cutoff of   9.70,  9.07,  9.35 a.u.
   NGXF,Y,Z  is equivalent  to a cutoff of  19.40, 18.14, 18.70 a.u.

 SYSTEM =  unknown system                          
 POSCAR =  C  Fe H  N                              

 Startparameter for this run:
   NWRITE =      2    write-flag & timer
   PREC   = normal    normal or accurate (medium, high low for compatibility)
   ISTART =      0    job   : 0-new  1-cont  2-samecut
   ICHARG =      2    charge: 1-file 2-atom 10-const
   ISPIN  =      2    spin polarized calculation?
   LNONCOLLINEAR =      F non collinear calculations
   LSORBIT =      F    spin-orbit coupling
   INIWAV =      1    electr: 0-lowe 1-rand  2-diag
   LASPH  =      F    aspherical Exc in radial PAW
   METAGGA=      F    non-selfconsistent MetaGGA calc.

 Electronic Relaxation 1
   ENCUT  =  500.0 eV  36.75 Ry    6.06 a.u.  43.76 40.11 29.17*2*pi/ulx,y,z
   ENINI  =  500.0     initial cutoff
   ENAUG  =  644.9 eV  augmentation charge cutoff
   NELM   =    200;   NELMIN=  8; NELMDL= -5     # of ELM steps 
   EDIFF  = 0.1E-07   stopping-criterion for ELM
   LREAL  =      T    real-space projection
   NLSPLINE    = F    spline interpolate recip. space projectors
   LCOMPAT=      F    compatible to vasp.4.4
   GGA_COMPAT  = T    GGA compatible to vasp.4.4-vasp.4.6
   LMAXPAW     = -100 max onsite density
   LMAXMIX     =    2 max onsite mixed and CHGCAR
   VOSKOWN=      0    Vosko Wilk Nusair interpolation
   ROPT   =   -0.00050  -0.00050  -0.00050  -0.00050
 Ionic relaxation
   EDIFFG = 0.1E-06   stopping-criterion for IOM
   NSW    =      0    number of steps for IOM
   NBLOCK =      1;   KBLOCK =      1    inner block; outer block 
   IBRION =     -1    ionic relax: 0-MD 1-quasi-New 2-CG
   NFREE  =      0    steps in history (QN), initial steepest desc. (CG)
   ISIF   =      2    stress and relaxation
   IWAVPR =     10    prediction:  0-non 1-charg 2-wave 3-comb
   ISYM   =      2    0-nonsym 1-usesym 2-fastsym
   LCORR  =      T    Harris-Foulkes like correction to forces

   POTIM  = 0.5000    time-step for ionic-motion
   TEIN   =    0.0    initial temperature
   TEBEG  =    0.0;   TEEND  =   0.0 temperature during run
   SMASS  =  -3.00    Nose mass-parameter (am)
   estimated Nose-frequenzy (Omega)   =  0.10E-29 period in steps =****** mass=  -0.132E-25a.u.
   SCALEE = 1.0000    scale energy and forces
   NPACO  =    256;   APACO  = 16.0  distance and # of slots for P.C.
   PSTRESS=    0.0 pullay stress

  Mass of Ions in am
   POMASS =  12.01 55.85  1.00 14.00
  Ionic Valenz
   ZVAL   =   4.00  8.00  1.00  5.00
  Atomic Wigner-Seitz radii
   RWIGS  =  -1.00 -1.00 -1.00 -1.00
  virtual crystal weights 
   VCA    =   1.00  1.00  1.00  1.00
   NELECT =     188.0000    total number of electrons
   NUPDOWN=      -1.0000    fix difference up-down

 DOS related values:
   EMIN   =  10.00;   EMAX   =-10.00  energy-range for DOS
   EFERMI =   0.00
   ISMEAR =     0;   SIGMA  =   0.03  broadening in eV -4-tet -1-fermi 0-gaus

 Electronic relaxation 2 (details)
   IALGO  =     38    algorithm
   LDIAG  =      T    sub-space diagonalisation (order eigenvalues)
   LSUBROT=      F    optimize rotation matrix (better conditioning)
   TURBO    =      0    0=normal 1=particle mesh
   IRESTART =      0    0=no restart 2=restart with 2 vectors
   NREBOOT  =      0    no. of reboots
   NMIN     =      0    reboot dimension
   EREF     =   0.00    reference energy to select bands
   IMIX   =      4    mixing-type and parameters
     AMIX     =   0.40;   BMIX     =  1.00
     AMIX_MAG =   1.60;   BMIX_MAG =  1.00
     AMIN     =   0.10
     WC   =   100.;   INIMIX=   1;  MIXPRE=   1;  MAXMIX= -45

 Intra band minimization:
   WEIMIN = 0.0000     energy-eigenvalue tresh-hold
   EBREAK =  0.20E-10  absolut break condition
   DEPER  =   0.30     relativ break condition  

   TIME   =   0.40     timestep for ELM

  volume/ion in A,a.u.               =     148.21      1000.17
  Fermi-wavevector in a.u.,A,eV,Ry     =   0.460479  0.870178  2.884987  0.212041
  Thomas-Fermi vector in A             =   1.446967
 
 Write flags
   LWAVE        =      T    write WAVECAR
   LDOWNSAMPLE  =      F    k-point downsampling of WAVECAR
   LCHARG       =      T    write CHGCAR
   LVTOT        =      F    write LOCPOT, total local potential
   LVHAR        =      F    write LOCPOT, Hartree potential only
   LELF         =      F    write electronic localiz. function (ELF)
   LORBIT       =     11    0 simple, 1 ext, 2 COOP (PROOUT), +10 PAW based schemes


 Dipole corrections
   LMONO  =      F    monopole corrections only (constant potential shift)
   LDIPOL =      F    correct potential (dipole corrections)
   IDIPOL =      0    1-x, 2-y, 3-z, 4-all directions 
   EPSILON=  1.0000000 bulk dielectric constant

 LDA+U is selected, type is set to LDAUTYPE =  2
   angular momentum for each species LDAUL =    -1    2   -1   -1
   U (eV)           for each species LDAUU =   0.0  2.0  0.0  0.0
   J (eV)           for each species LDAUJ =   0.0  0.0  0.0  0.0
 Exchange correlation treatment:
   GGA     =    RP    GGA type
   LEXCH   =     9    internal setting for exchange type
   VOSKOWN=      0    Vosko Wilk Nusair interpolation
   LHFCALC =     F    Hartree Fock is set to
   LHFONE  =     F    Hartree Fock one center treatment
   AEXX    =    0.0000 exact exchange contribution

 Linear response parameters
   LEPSILON=     F    determine dielectric tensor
   LRPA    =     F    only Hartree local field effects (RPA)
   LNABLA  =     F    use nabla operator in PAW spheres
   LVEL    =     F    velocity operator in full k-point grid
   LINTERFAST=   F  fast interpolation
   KINTER  =     0    interpolate to denser k-point grid
   CSHIFT  =0.1000    complex shift for real part using Kramers Kronig
   OMEGAMAX=  -1.0    maximum frequency
   DEG_THRESHOLD= 0.2000000E-02 threshold for treating states as degnerate
   RTIME   =   -0.100 relaxation time in fs
  (WPLASMAI=    0.000 imaginary part of plasma frequency in eV, 0.658/RTIME)
   DFIELD  = 0.0000000 0.0000000 0.0000000 field for delta impulse in time
 
 Orbital magnetization related:
   ORBITALMAG=     F  switch on orbital magnetization
   LCHIMAG   =     F  perturbation theory with respect to B field
   DQ        =  0.001000  dq finite difference perturbation B field
   LLRAUG    =     F  two centre corrections for induced B field



--------------------------------------------------------------------------------------------------------


 Static calculation
 charge density and potential will be updated during run
 spin polarized calculation
 Variant of blocked Davidson
 Davidson routine will perform the subspace rotation
 perform sub-space diagonalisation
    after iterative eigenvector-optimisation
 modified Broyden-mixing scheme, WC =      100.0
 initial mixing is a Kerker type mixing with AMIX =  0.4000 and BMIX =      1.0000
 Hartree-type preconditioning will be used
 using additional bands           32
 real space projection scheme for non local part
 use partial core corrections
 calculate Harris-corrections to forces 
   (improved forces if not selfconsistent)
 use gradient corrections 
 use of overlap-Matrix (Vanderbilt PP)
 Gauss-broadening in eV      SIGMA  =   0.03


--------------------------------------------------------------------------------------------------------


  energy-cutoff  :      500.00
  volume of cell :     8448.00
      direct lattice vectors                 reciprocal lattice vectors
    24.000000000  0.000000000  0.000000000     0.041666667  0.000000000  0.000000000
     0.000000000 22.000000000  0.000000000     0.000000000  0.045454545  0.000000000
     0.000000000  0.000000000 16.000000000     0.000000000  0.000000000  0.062500000

  length of vectors
    24.000000000 22.000000000 16.000000000     0.041666667  0.045454545  0.062500000


 
 k-points in units of 2pi/SCALE and weight: K-Spacing Value to Generate K-Mesh: 0.03
   0.00000000  0.00000000  0.00000000       1.000
 
 k-points in reciprocal lattice and weights: K-Spacing Value to Generate K-Mesh: 0.03
   0.00000000  0.00000000  0.00000000       1.000
 
 position of ions in fractional coordinates (direct lattice) 
   0.63379418  0.32650198  0.50000000
   0.52200693  0.69554982  0.50000000
   0.53613715  0.29129813  0.50000000
   0.42434991  0.66034597  0.50000000
   0.65467588  0.43636586  0.50000000
   0.55701885  0.40116201  0.50000000
   0.45936183  0.36595816  0.50000000
   0.36170481  0.33075431  0.50000000
   0.67555758  0.54622975  0.50000000
   0.43848013  0.25609428  0.50000000
   0.69643928  0.65609363  0.50000000
   0.59878226  0.62088978  0.50000000
   0.40346821  0.55048208  0.50000000
   0.30581119  0.51527823  0.50000000
   0.61966396  0.73075367  0.50000000
   0.28492948  0.40541435  0.50000000
   0.30356072  0.34390637  0.50000000
   0.32669289  0.62514212  0.50000000
   0.38258651  0.44061820  0.50000000
   0.36620582  0.67349802  0.50000000
   0.32444242  0.45377025  0.50000000
   0.57565009  0.33965403  0.50000000
   0.47799306  0.30445018  0.50000000
   0.38033604  0.26924633  0.50000000
   0.69418881  0.48472177  0.50000000
   0.40121774  0.37911022  0.50000000
   0.71507052  0.59458565  0.50000000
   0.59653179  0.44951792  0.50000000
   0.61741349  0.55938180  0.50000000
   0.63829519  0.66924569  0.50000000
   0.54063817  0.63404184  0.50000000
   0.44298115  0.59883799  0.50000000
   0.34532412  0.56363414  0.50000000
   0.56151987  0.74390572  0.50000000
   0.67330711  0.37485788  0.50000000
   0.46386285  0.70870187  0.50000000
   0.50000000  0.50000000  0.50000000
   0.72629530  0.69344185  0.50000000
   0.24056776  0.41603654  0.50000000
   0.55044871  0.24430516  0.50000000
   0.35223922  0.72066628  0.50000000
   0.26137944  0.52541013  0.50000000
   0.45323016  0.20923330  0.50000000
   0.64776078  0.27933372  0.50000000
   0.65025792  0.76738428  0.50000000
   0.44955129  0.75569484  0.50000000
   0.71785901  0.36511989  0.50000000
   0.34974208  0.23261572  0.50000000
   0.73862056  0.47458987  0.50000000
   0.27370470  0.30655814  0.50000000
   0.75943224  0.58396346  0.50000000
   0.54676984  0.79076670  0.50000000
   0.28214099  0.63488011  0.50000000
   0.57951818  0.50999352  0.50000000
   0.49999997  0.58732087  0.50000000
   0.50000003  0.41267913  0.50000000
   0.42048182  0.49000648  0.50000000
 
 position of ions in cartesian coordinates  (Angst):
  15.21106026  7.18304354  8.00000000
  12.52816644 15.30209595  8.00000000
  12.86729168  6.40855884  8.00000000
  10.18439786 14.52761124  8.00000000
  15.71222110  9.60004900  8.00000000
  13.36845252  8.82556429  8.00000000
  11.02468394  8.05107959  8.00000000
   8.68091537  7.27659488  8.00000000
  16.21338193 12.01705445  8.00000000
  10.52352310  5.63407413  8.00000000
  16.71454277 14.43405991  8.00000000
  14.37077419 13.65957520  8.00000000
   9.68323703 12.11060579  8.00000000
   7.33946845 11.33612109  8.00000000
  14.87193501 16.07658066  8.00000000
   6.83830761  8.91911563  8.00000000
   7.28545724  7.56594009  8.00000000
   7.84062928 13.75312654  8.00000000
   9.18207619  9.69360034  8.00000000
   8.78893974 14.81695646  8.00000000
   7.78661807  9.98294555  8.00000000
  13.81560214  7.47238875  8.00000000
  11.47183356  6.69790405  8.00000000
   9.12806499  5.92341935  8.00000000
  16.66053155 10.66387892  8.00000000
   9.62922582  8.34042480  8.00000000
  17.16169238 13.08088437  8.00000000
  14.31676297  9.88939421  8.00000000
  14.81792381 12.30639966  8.00000000
  15.31908464 14.72340512  8.00000000
  12.97531607 13.94892041  8.00000000
  10.63154748 13.17443571  8.00000000
   8.28777890 12.39995100  8.00000000
  13.47647689 16.36592587  8.00000000
  16.15937071  8.24687346  8.00000000
  11.13270831 15.59144116  8.00000000
  12.00000000 11.00000000  8.00000000
  17.43108728 15.25572080  8.00000000
   5.77362622  9.15280395  8.00000000
  13.21076901  5.37471344  8.00000000
   8.45374138 15.85465822  8.00000000
   6.27310652 11.55902290  8.00000000
  10.87752373  4.60313270  8.00000000
  15.54625861  6.14534178  8.00000000
  15.60619013 16.88245413  8.00000000
  10.78923099 16.62528656  8.00000000
  17.22861618  8.03263756  8.00000000
   8.39380987  5.11754588  8.00000000
  17.72689348 10.44097711  8.00000000
   6.56891274  6.74427919  8.00000000
  18.22637377 12.84719604  8.00000000
  13.12247626 17.39686730  8.00000000
   6.77138382 13.96736243  8.00000000
  13.90843634 11.21985744  8.00000000
  11.99999939 12.92105907  8.00000000
  12.00000061  9.07894093  8.00000000
  10.09156366 10.78014256  8.00000000
 


--------------------------------------------------------------------------------------------------------


 use parallel FFT for orbitals z direction half grid
 k-point  1 :   0.0000 0.0000 0.0000  plane waves:  107253

 maximum and minimum number of plane-waves per node :      3359     3342

 maximum number of plane-waves:    107253
 maximum index in each direction: 
   IXMAX=   43   IYMAX=   40   IZMAX=   29
   IXMIN=  -43   IYMIN=  -40   IZMIN=    0


 real space projection operators:
  total allocation   :       3033.30 KBytes
  max/ min on nodes  :        113.10         78.13


 parallel 3D FFT for wavefunctions:
    minimum data exchange during FFTs selected (reduces bandwidth)
 parallel 3D FFT for charge:
    minimum data exchange during FFTs selected (reduces bandwidth)


 total amount of memory used by VASP MPI-rank0    70515. kBytes
=======================================================================

   base      :      30000. kBytes
   nonlr-proj:        130. kBytes
   fftplans  :       8304. kBytes
   grid      :      25267. kBytes
   one-center:         31. kBytes
   wavefun   :       6783. kBytes
 
     INWAV:  cpu time    0.0000: real time    0.0000
 Broyden mixing: mesh for mixing (old mesh)
   NGX = 87   NGY = 81   NGZ = 59
  (NGX  =280   NGY  =240   NGZ  =180)
  gives a total of 415773 points

 initial charge density was supplied:
 charge density of overlapping atoms calculated
 number of electron     188.0000000 magnetization       6.4000000
 keeping initial charge density in first step


--------------------------------------------------------------------------------------------------------


 Maximum index for non-local projection operator          131
 Maximum index for augmentation-charges          187 (set IRDMAX)


--------------------------------------------------------------------------------------------------------


 First call to EWALD:  gamma=   0.087
 Maximum number of real-space cells 2x 3x 3
 Maximum number of reciprocal cells 3x 3x 2

    FEWALD:  cpu time    0.0028: real time    0.0028


--------------------------------------- Iteration      1(   1)  ---------------------------------------


    POTLOK:  cpu time    0.3036: real time    0.3172
    SETDIJ:  cpu time    0.0135: real time    0.0136
     EDDAV:  cpu time    1.4401: real time    1.4502
       DOS:  cpu time    0.0012: real time    0.0013
    --------------------------------------------
      LOOP:  cpu time    1.7584: real time    1.7823

 eigenvalue-minimisations  :   600
 total energy-change (2. order) : 0.2092209E+04  (-0.5288737E+04)
 number of electron     188.0000000 magnetization       6.4000000
 augmentation part      188.0000000 magnetization       6.4000000

 Free energy of the ion-electron system (eV)
  ---------------------------------------------------
  alpha Z        PSCENC =        21.16086270
  Ewald energy   TEWEN  =     25018.31690205
  -Hartree energ DENC   =    -30090.55486361
  -exchange      EXHF   =         0.00000000
  -V(xc)+E(xc)   XCENC  =       588.55483505
  PAW double counting   =      5318.00941397    -5342.94263051
  entropy T*S    EENTRO =        -0.01247650
  eigenvalues    EBANDS =      -573.91782574
  atomic energy  EATOM  =      7153.59493031
  Solvation  Ediel_sol  =         0.00000000
  ---------------------------------------------------
  free energy    TOTEN  =      2092.20914770 eV

  energy without entropy =     2092.22162420  energy(sigma->0) =     2092.21538595


--------------------------------------------------------------------------------------------------------




--------------------------------------- Iteration      1(   2)  ---------------------------------------


     EDDAV:  cpu time    1.8815: real time    1.9562
       DOS:  cpu time    0.0006: real time    0.0006
    --------------------------------------------
      LOOP:  cpu time    1.8821: real time    1.9568

 eigenvalue-minimisations  :   848
 total energy-change (2. order) :-0.1609816E+04  (-0.1489125E+04)
 number of electron     188.0000000 magnetization       6.4000000
 augmentation part      188.0000000 magnetization       6.4000000

 Free energy of the ion-electron system (eV)
  ---------------------------------------------------
  alpha Z        PSCENC =        21.16086270
  Ewald energy   TEWEN  =     25018.31690205
  -Hartree energ DENC   =    -30090.55486361
  -exchange      EXHF   =         0.00000000
  -V(xc)+E(xc)   XCENC  =       588.55483505
  PAW double counting   =      5318.00941397    -5342.94263051
  entropy T*S    EENTRO =        -0.01329739
  eigenvalues    EBANDS =     -2183.73322333
  atomic energy  EATOM  =      7153.59493031
  Solvation  Ediel_sol  =         0.00000000
  ---------------------------------------------------
  free energy    TOTEN  =       482.39292922 eV

  energy without entropy =      482.40622661  energy(sigma->0) =      482.39957792


--------------------------------------------------------------------------------------------------------




--------------------------------------- Iteration      1(   3)  ---------------------------------------


     EDDAV:  cpu time    1.6575: real time    1.6708
       DOS:  cpu time    0.0006: real time    0.0006
    --------------------------------------------
      LOOP:  cpu time    1.6581: real time    1.6714

 eigenvalue-minimisations  :   696
 total energy-change (2. order) :-0.7951916E+03  (-0.7679895E+03)
 number of electron     188.0000000 magnetization       6.4000000
 augmentation part      188.0000000 magnetization       6.4000000

 Free energy of the ion-electron system (eV)
  ---------------------------------------------------
  alpha Z        PSCENC =        21.16086270
  Ewald energy   TEWEN  =     25018.31690205
  -Hartree energ DENC   =    -30090.55486361
  -exchange      EXHF   =         0.00000000
  -V(xc)+E(xc)   XCENC  =       588.55483505
  PAW double counting   =      5318.00941397    -5342.94263051
  entropy T*S    EENTRO =        -0.00000000
  eigenvalues    EBANDS =     -2978.93815424
  atomic energy  EATOM  =      7153.59493031
  Solvation  Ediel_sol  =         0.00000000
  ---------------------------------------------------
  free energy    TOTEN  =      -312.79870430 eV

  energy without entropy =     -312.79870430  energy(sigma->0) =     -312.79870430


--------------------------------------------------------------------------------------------------------




--------------------------------------- Iteration      1(   4)  ---------------------------------------


     EDDAV:  cpu time    1.7206: real time    1.7328
       DOS:  cpu time    0.0006: real time    0.0006
    --------------------------------------------
      LOOP:  cpu time    1.7212: real time    1.7335

 eigenvalue-minimisations  :   728
 total energy-change (2. order) :-0.1311227E+03  (-0.1296754E+03)
 number of electron     188.0000000 magnetization       6.4000000
 augmentation part      188.0000000 magnetization       6.4000000

 Free energy of the ion-electron system (eV)
  ---------------------------------------------------
  alpha Z        PSCENC =        21.16086270
  Ewald energy   TEWEN  =     25018.31690205
  -Hartree energ DENC   =    -30090.55486361
  -exchange      EXHF   =         0.00000000
  -V(xc)+E(xc)   XCENC  =       588.55483505
  PAW double counting   =      5318.00941397    -5342.94263051
  entropy T*S    EENTRO =        -0.00000000
  eigenvalues    EBANDS =     -3110.06089980
  atomic energy  EATOM  =      7153.59493031
  Solvation  Ediel_sol  =         0.00000000
  ---------------------------------------------------
  free energy    TOTEN  =      -443.92144985 eV

  energy without entropy =     -443.92144985  energy(sigma->0) =     -443.92144985


--------------------------------------------------------------------------------------------------------




--------------------------------------- Iteration      1(   5)  ---------------------------------------


     EDDAV:  cpu time    1.5078: real time    1.5512
       DOS:  cpu time    0.0007: real time    0.0007
    CHARGE:  cpu time    0.2345: real time    0.2356
    MIXING:  cpu time    0.0103: real time    0.0105
    --------------------------------------------
      LOOP:  cpu time    1.7534: real time    1.7980

 eigenvalue-minimisations  :   648
 total energy-change (2. order) :-0.4490741E+01  (-0.4401786E+01)
 number of electron     187.9999916 magnetization       6.1498986
 augmentation part        7.7868527 magnetization       4.5748390

 Broyden mixing:
  rms(total) = 0.40336E+01    rms(broyden)= 0.40330E+01
  rms(prec ) = 0.42893E+01
  weight for this iteration     100.00

 Free energy of the ion-electron system (eV)
  ---------------------------------------------------
  alpha Z        PSCENC =        21.16086270
  Ewald energy   TEWEN  =     25018.31690205
  -Hartree energ DENC   =    -30090.55486361
  -exchange      EXHF   =         0.00000000
  -V(xc)+E(xc)   XCENC  =       588.55483505
  PAW double counting   =      5318.00941397    -5342.94263051
  entropy T*S    EENTRO =        -0.00192097
  eigenvalues    EBANDS =     -3114.54971991
  atomic energy  EATOM  =      7153.59493031
  Solvation  Ediel_sol  =         0.00000000
  ---------------------------------------------------
  free energy    TOTEN  =      -448.41219093 eV

  energy without entropy =     -448.41026996  energy(sigma->0) =     -448.41123045


--------------------------------------------------------------------------------------------------------




--------------------------------------- Iteration      1(   6)  ---------------------------------------


    POTLOK:  cpu time    0.2879: real time    0.2954
    SETDIJ:  cpu time    0.0064: real time    0.0064
     EDDAV:  cpu time    1.6007: real time    1.6114
       DOS:  cpu time    0.0007: real time    0.0007
    CHARGE:  cpu time    0.2270: real time    0.2281
    MIXING:  cpu time    0.0077: real time    0.0078
    --------------------------------------------
      LOOP:  cpu time    2.1304: real time    2.1498

 eigenvalue-minimisations  :   724
 total energy-change (2. order) : 0.5467755E+01  (-0.1547851E+02)
 number of electron     187.9999946 magnetization       6.1064438
 augmentation part       12.4219673 magnetization       4.2330721

 Broyden mixing:
  rms(total) = 0.99453E+01    rms(broyden)= 0.99452E+01
  rms(prec ) = 0.10133E+02
  weight for this iteration     100.00

 eigenvalues of (default mixing * dielectric matrix)
  average eigenvalue GAMMA=   0.0386
  0.0386

 Free energy of the ion-electron system (eV)
  ---------------------------------------------------
  alpha Z        PSCENC =        21.16086270
  Ewald energy   TEWEN  =     25018.31690205
  -Hartree energ DENC   =    -30325.64273851
  -exchange      EXHF   =         0.00000000
  -V(xc)+E(xc)   XCENC  =       599.53924344
  PAW double counting   =      9200.03050038    -9221.81712547
  entropy T*S    EENTRO =        -0.00000087
  eigenvalues    EBANDS =     -2888.12701028
  atomic energy  EATOM  =      7153.59493031
  Solvation  Ediel_sol  =         0.00000000
  ---------------------------------------------------
  free energy    TOTEN  =      -442.94443625 eV

  energy without entropy =     -442.94443538  energy(sigma->0) =     -442.94443582


--------------------------------------------------------------------------------------------------------




--------------------------------------- Iteration      1(   7)  ---------------------------------------


    POTLOK:  cpu time    0.3200: real time    0.3226
    SETDIJ:  cpu time    0.0067: real time    0.0068
     EDDAV:  cpu time    1.6608: real time    1.6715
       DOS:  cpu time    0.0007: real time    0.0007
    CHARGE:  cpu time    0.2280: real time    0.2294
    MIXING:  cpu time    0.0077: real time    0.0077
    --------------------------------------------
      LOOP:  cpu time    2.2240: real time    2.2386

 eigenvalue-minimisations  :   728
 total energy-change (2. order) : 0.1054399E+02  (-0.5009796E+01)
 number of electron     187.9999945 magnetization       5.6652141
 augmentation part       12.0745375 magnetization       5.3387835

 Broyden mixing:
  rms(total) = 0.69921E+01    rms(broyden)= 0.69920E+01
  rms(prec ) = 0.72152E+01
  weight for this iteration     100.00

 eigenvalues of (default mixing * dielectric matrix)
  average eigenvalue GAMMA=   0.3270
  0.3270  0.3270

 Free energy of the ion-electron system (eV)
  ---------------------------------------------------
  alpha Z        PSCENC =        21.16086270
  Ewald energy   TEWEN  =     25018.31690205
  -Hartree energ DENC   =    -30357.16789485
  -exchange      EXHF   =         0.00000000
  -V(xc)+E(xc)   XCENC  =       600.49727648
  PAW double counting   =      9535.60616616    -9560.10126056
  entropy T*S    EENTRO =        -0.01177551
  eigenvalues    EBANDS =     -2844.29565614
  atomic energy  EATOM  =      7153.59493031
  Solvation  Ediel_sol  =         0.00000000
  ---------------------------------------------------
  free energy    TOTEN  =      -432.40044937 eV

  energy without entropy =     -432.38867386  energy(sigma->0) =     -432.39456162


--------------------------------------------------------------------------------------------------------




--------------------------------------- Iteration      1(   8)  ---------------------------------------


    POTLOK:  cpu time    0.3400: real time    0.3425
    SETDIJ:  cpu time    0.0065: real time    0.0065
     EDDAV:  cpu time    1.4384: real time    1.4480
       DOS:  cpu time    0.0008: real time    0.0008
    CHARGE:  cpu time    0.2268: real time    0.2281
    MIXING:  cpu time    0.0118: real time    0.0118
    --------------------------------------------
      LOOP:  cpu time    2.0242: real time    2.0378

 eigenvalue-minimisations  :   634
 total energy-change (2. order) : 0.2228331E+02  (-0.1041141E+02)
 number of electron     187.9999915 magnetization       4.7715155
 augmentation part        6.5482699 magnetization       4.7321471

 Broyden mixing:
  rms(total) = 0.34458E+01    rms(broyden)= 0.34455E+01
  rms(prec ) = 0.37517E+01
  weight for this iteration     100.00

 eigenvalues of (default mixing * dielectric matrix)
  average eigenvalue GAMMA=   0.6756
  1.4882  0.2692  0.2692

 Free energy of the ion-electron system (eV)
  ---------------------------------------------------
  alpha Z        PSCENC =        21.16086270
  Ewald energy   TEWEN  =     25018.31690205
  -Hartree energ DENC   =    -30485.30275455
  -exchange      EXHF   =         0.00000000
  -V(xc)+E(xc)   XCENC  =       606.93664257
  PAW double counting   =     11065.32731733   -11096.68516869
  entropy T*S    EENTRO =        -0.01869357
  eigenvalues    EBANDS =     -2693.44718012
  atomic energy  EATOM  =      7153.59493031
  Solvation  Ediel_sol  =         0.00000000
  ---------------------------------------------------
  free energy    TOTEN  =      -410.11714197 eV

  energy without entropy =     -410.09844841  energy(sigma->0) =     -410.10779519


--------------------------------------------------------------------------------------------------------




--------------------------------------- Iteration      1(   9)  ---------------------------------------


    POTLOK:  cpu time    0.3293: real time    0.3314
    SETDIJ:  cpu time    0.0065: real time    0.0065
     EDDAV:  cpu time    1.6597: real time    1.6706
       DOS:  cpu time    0.0007: real time    0.0007
    CHARGE:  cpu time    0.2258: real time    0.2268
    MIXING:  cpu time    0.0081: real time    0.0081
    --------------------------------------------
      LOOP:  cpu time    2.2300: real time    2.2442

 eigenvalue-minimisations  :   704
 total energy-change (2. order) : 0.1141223E+02  (-0.3648587E+01)
 number of electron     187.9999952 magnetization       4.6155656
 augmentation part       10.2821656 magnetization       4.4283523

 Broyden mixing:
  rms(total) = 0.20618E+01    rms(broyden)= 0.20612E+01
  rms(prec ) = 0.22337E+01
  weight for this iteration     100.00

 eigenvalues of (default mixing * dielectric matrix)
  average eigenvalue GAMMA=   0.6070
  1.3442  0.2647  0.2647  0.5544

 Free energy of the ion-electron system (eV)
  ---------------------------------------------------
  alpha Z        PSCENC =        21.16086270
  Ewald energy   TEWEN  =     25018.31690205
  -Hartree energ DENC   =    -30694.38560076
  -exchange      EXHF   =         0.00000000
  -V(xc)+E(xc)   XCENC  =       619.29542400
  PAW double counting   =     15768.79278830   -15800.62626173
  entropy T*S    EENTRO =        -0.00000000
  eigenvalues    EBANDS =     -2484.85396136
  atomic energy  EATOM  =      7153.59493031
  Solvation  Ediel_sol  =         0.00000000
  ---------------------------------------------------
  free energy    TOTEN  =      -398.70491649 eV

  energy without entropy =     -398.70491649  energy(sigma->0) =     -398.70491649


--------------------------------------------------------------------------------------------------------




--------------------------------------- Iteration      1(  10)  ---------------------------------------


    POTLOK:  cpu time    0.2850: real time    0.3335
    SETDIJ:  cpu time    0.0067: real time    0.0067
     EDDAV:  cpu time    1.7543: real time    1.7654
       DOS:  cpu time    0.0007: real time    0.0007
    CHARGE:  cpu time    0.2281: real time    0.2290
    MIXING:  cpu time    0.0131: real time    0.0132
    --------------------------------------------
      LOOP:  cpu time    2.2879: real time    2.3486

 eigenvalue-minimisations  :   784
 total energy-change (2. order) :-0.3872816E+00  (-0.1315911E+01)
 number of electron     187.9999936 magnetization       4.4927237
 augmentation part        8.3925966 magnetization       3.5608307

 Broyden mixing:
  rms(total) = 0.14131E+01    rms(broyden)= 0.14129E+01
  rms(prec ) = 0.14374E+01
  weight for this iteration     100.00

 eigenvalues of (default mixing * dielectric matrix)
  average eigenvalue GAMMA=   0.5594
  1.3709  0.2767  0.2767  0.4365  0.4365

 Free energy of the ion-electron system (eV)
  ---------------------------------------------------
  alpha Z        PSCENC =        21.16086270
  Ewald energy   TEWEN  =     25018.31690205
  -Hartree energ DENC   =    -30713.10585444
  -exchange      EXHF   =         0.00000000
  -V(xc)+E(xc)   XCENC  =       617.59484319
  PAW double counting   =     15934.76627752   -15967.89989837
  entropy T*S    EENTRO =        -0.00121142
  eigenvalues    EBANDS =     -2463.51904958
  atomic energy  EATOM  =      7153.59493031
  Solvation  Ediel_sol  =         0.00000000
  ---------------------------------------------------
  free energy    TOTEN  =      -399.09219805 eV

  energy without entropy =     -399.09098663  energy(sigma->0) =     -399.09159234


--------------------------------------------------------------------------------------------------------




--------------------------------------- Iteration      1(  11)  ---------------------------------------


    POTLOK:  cpu time    0.4023: real time    0.4051
    SETDIJ:  cpu time    0.0066: real time    0.0066
     EDDAV:  cpu time    1.5032: real time    1.5132
       DOS:  cpu time    0.0006: real time    0.0007
    CHARGE:  cpu time    0.2251: real time    0.2261
    MIXING:  cpu time    0.0091: real time    0.0091
    --------------------------------------------
      LOOP:  cpu time    2.1469: real time    2.1606

 eigenvalue-minimisations  :   672
 total energy-change (2. order) :-0.3534254E+01  (-0.2347880E+00)
 number of electron     187.9999937 magnetization       4.1105124
 augmentation part        8.5324923 magnetization       3.3176768

 Broyden mixing:
  rms(total) = 0.97538E+00    rms(broyden)= 0.97535E+00
  rms(prec ) = 0.99394E+00
  weight for this iteration     100.00

 eigenvalues of (default mixing * dielectric matrix)
  average eigenvalue GAMMA=   0.7521
  1.4065  1.0345  1.0345  0.2660  0.2660  0.5052

 Free energy of the ion-electron system (eV)
  ---------------------------------------------------
  alpha Z        PSCENC =        21.16086270
  Ewald energy   TEWEN  =     25018.31690205
  -Hartree energ DENC   =    -30739.66143422
  -exchange      EXHF   =         0.00000000
  -V(xc)+E(xc)   XCENC  =       616.62667286
  PAW double counting   =     16465.21793048   -16497.56476163
  entropy T*S    EENTRO =        -0.00000000
  eigenvalues    EBANDS =     -2440.31755466
  atomic energy  EATOM  =      7153.59493031
  Solvation  Ediel_sol  =         0.00000000
  ---------------------------------------------------
  free energy    TOTEN  =      -402.62645212 eV

  energy without entropy =     -402.62645212  energy(sigma->0) =     -402.62645212


--------------------------------------------------------------------------------------------------------




--------------------------------------- Iteration      1(  12)  ---------------------------------------


    POTLOK:  cpu time    0.3010: real time    0.3031
    SETDIJ:  cpu time    0.0062: real time    0.0062
     EDDAV:  cpu time    1.5508: real time    1.5608
       DOS:  cpu time    0.0007: real time    0.0007
    CHARGE:  cpu time    0.2258: real time    0.2268
    MIXING:  cpu time    0.0097: real time    0.0098
    --------------------------------------------
      LOOP:  cpu time    2.0942: real time    2.1075

 eigenvalue-minimisations  :   696
 total energy-change (2. order) :-0.3455590E+01  (-0.4098711E+00)
 number of electron     187.9999939 magnetization       3.8998574
 augmentation part        8.6584658 magnetization       3.3713717

 Broyden mixing:
  rms(total) = 0.51164E+00    rms(broyden)= 0.51161E+00
  rms(prec ) = 0.52121E+00
  weight for this iteration     100.00

 eigenvalues of (default mixing * dielectric matrix)
  average eigenvalue GAMMA=   0.8286
  1.9817  1.0961  1.0961  0.2664  0.2664  0.5467  0.5467

 Free energy of the ion-electron system (eV)
  ---------------------------------------------------
  alpha Z        PSCENC =        21.16086270
  Ewald energy   TEWEN  =     25018.31690205
  -Hartree energ DENC   =    -30811.02907647
  -exchange      EXHF   =         0.00000000
  -V(xc)+E(xc)   XCENC  =       616.91371287
  PAW double counting   =     17750.74090865   -17781.67417636
  entropy T*S    EENTRO =        -0.00000000
  eigenvalues    EBANDS =     -2374.10610583
  atomic energy  EATOM  =      7153.59493031
  Solvation  Ediel_sol  =         0.00000000
  ---------------------------------------------------
  free energy    TOTEN  =      -406.08204208 eV

  energy without entropy =     -406.08204208  energy(sigma->0) =     -406.08204208


--------------------------------------------------------------------------------------------------------




--------------------------------------- Iteration      1(  13)  ---------------------------------------


    POTLOK:  cpu time    0.2970: real time    0.3190
    SETDIJ:  cpu time    0.0066: real time    0.0066
     EDDAV:  cpu time    1.5162: real time    1.5262
       DOS:  cpu time    0.0007: real time    0.0007
    CHARGE:  cpu time    0.2246: real time    0.2260
    MIXING:  cpu time    0.0098: real time    0.0099
    --------------------------------------------
      LOOP:  cpu time    2.0549: real time    2.0884

 eigenvalue-minimisations  :   680
 total energy-change (2. order) :-0.5755986E+00  (-0.7054771E-01)
 number of electron     187.9999940 magnetization       3.6988719
 augmentation part        8.8135864 magnetization       3.1584049

 Broyden mixing:
  rms(total) = 0.42174E+00    rms(broyden)= 0.42172E+00
  rms(prec ) = 0.42895E+00
  weight for this iteration     100.00

 eigenvalues of (default mixing * dielectric matrix)
  average eigenvalue GAMMA=   0.8957
  2.1435  1.3532  1.3532  0.2664  0.2664  0.6538  0.6538  0.4754

 Free energy of the ion-electron system (eV)
  ---------------------------------------------------
  alpha Z        PSCENC =        21.16086270
  Ewald energy   TEWEN  =     25018.31690205
  -Hartree energ DENC   =    -30833.65971454
  -exchange      EXHF   =         0.00000000
  -V(xc)+E(xc)   XCENC  =       616.86338987
  PAW double counting   =     18135.21024178   -18165.70288514
  entropy T*S    EENTRO =        -0.00000000
  eigenvalues    EBANDS =     -2352.44136770
  atomic energy  EATOM  =      7153.59493031
  Solvation  Ediel_sol  =         0.00000000
  ---------------------------------------------------
  free energy    TOTEN  =      -406.65764066 eV

  energy without entropy =     -406.65764066  energy(sigma->0) =     -406.65764066


--------------------------------------------------------------------------------------------------------




--------------------------------------- Iteration      1(  14)  ---------------------------------------


    POTLOK:  cpu time    0.3335: real time    0.3364
    SETDIJ:  cpu time    0.0063: real time    0.0063
     EDDAV:  cpu time    1.5934: real time    1.6038
       DOS:  cpu time    0.0008: real time    0.0008
    CHARGE:  cpu time    0.2409: real time    0.2423
    MIXING:  cpu time    0.0110: real time    0.0111
    --------------------------------------------
      LOOP:  cpu time    2.1860: real time    2.2008

 eigenvalue-minimisations  :   698
 total energy-change (2. order) :-0.5617435E+00  (-0.3179558E-01)
 number of electron     187.9999940 magnetization       3.4663826
 augmentation part        8.9061478 magnetization       2.9396932

 Broyden mixing:
  rms(total) = 0.36946E+00    rms(broyden)= 0.36945E+00
  rms(prec ) = 0.38369E+00
  weight for this iteration     100.00

 eigenvalues of (default mixing * dielectric matrix)
  average eigenvalue GAMMA=   0.9997
  2.2972  2.2972  0.9435  0.9435  0.2664  0.2664  0.8805  0.5514  0.5514

 Free energy of the ion-electron system (eV)
  ---------------------------------------------------
  alpha Z        PSCENC =        21.16086270
  Ewald energy   TEWEN  =     25018.31690205
  -Hartree energ DENC   =    -30847.51564114
  -exchange      EXHF   =         0.00000000
  -V(xc)+E(xc)   XCENC  =       616.71227227
  PAW double counting   =     18228.82569304   -18259.15968448
  entropy T*S    EENTRO =        -0.00000000
  eigenvalues    EBANDS =     -2339.15471895
  atomic energy  EATOM  =      7153.59493031
  Solvation  Ediel_sol  =         0.00000000
  ---------------------------------------------------
  free energy    TOTEN  =      -407.21938421 eV

  energy without entropy =     -407.21938421  energy(sigma->0) =     -407.21938421


--------------------------------------------------------------------------------------------------------




--------------------------------------- Iteration      1(  15)  ---------------------------------------


    POTLOK:  cpu time    0.2794: real time    0.3218
    SETDIJ:  cpu time    0.0068: real time    0.0068
     EDDAV:  cpu time    1.5482: real time    1.5590
       DOS:  cpu time    0.0007: real time    0.0007
    CHARGE:  cpu time    0.2242: real time    0.2252
    MIXING:  cpu time    0.0150: real time    0.0150
    --------------------------------------------
      LOOP:  cpu time    2.0743: real time    2.1286

 eigenvalue-minimisations  :   696
 total energy-change (2. order) :-0.4520973E+00  (-0.1343619E-01)
 number of electron     187.9999941 magnetization       3.2879293
 augmentation part        8.9351821 magnetization       2.7712360

 Broyden mixing:
  rms(total) = 0.33773E+00    rms(broyden)= 0.33772E+00
  rms(prec ) = 0.35728E+00
  weight for this iteration     100.00

 eigenvalues of (default mixing * dielectric matrix)
  average eigenvalue GAMMA=   1.0244
  2.3820  2.3820  1.0376  1.0376  1.0632  0.2664  0.2664  0.6532  0.6532  0.5026

 Free energy of the ion-electron system (eV)
  ---------------------------------------------------
  alpha Z        PSCENC =        21.16086270
  Ewald energy   TEWEN  =     25018.31690205
  -Hartree energ DENC   =    -30862.47150970
  -exchange      EXHF   =         0.00000000
  -V(xc)+E(xc)   XCENC  =       616.53708378
  PAW double counting   =     18239.08704767   -18269.40552909
  entropy T*S    EENTRO =        -0.00000000
  eigenvalues    EBANDS =     -2324.49126919
  atomic energy  EATOM  =      7153.59493031
  Solvation  Ediel_sol  =         0.00000000
  ---------------------------------------------------
  free energy    TOTEN  =      -407.67148148 eV

  energy without entropy =     -407.67148148  energy(sigma->0) =     -407.67148148


--------------------------------------------------------------------------------------------------------




--------------------------------------- Iteration      1(  16)  ---------------------------------------


    POTLOK:  cpu time    0.3460: real time    0.3480
    SETDIJ:  cpu time    0.0063: real time    0.0064
     EDDAV:  cpu time    1.5431: real time    1.5536
       DOS:  cpu time    0.0009: real time    0.0009
    CHARGE:  cpu time    0.2241: real time    0.2251
    MIXING:  cpu time    0.0163: real time    0.0164
    --------------------------------------------
      LOOP:  cpu time    2.1368: real time    2.1503

 eigenvalue-minimisations  :   692
 total energy-change (2. order) :-0.1668625E+00  (-0.3670097E-02)
 number of electron     187.9999941 magnetization       3.1377530
 augmentation part        8.9025531 magnetization       2.6091965

 Broyden mixing:
  rms(total) = 0.26958E+00    rms(broyden)= 0.26957E+00
  rms(prec ) = 0.28788E+00
  weight for this iteration     100.00

 eigenvalues of (default mixing * dielectric matrix)
  average eigenvalue GAMMA=   1.0382
  2.4081  2.4081  1.2575  1.2575  0.2664  0.2664  0.8118  0.8118  0.8228  0.5551
  0.5551

 Free energy of the ion-electron system (eV)
  ---------------------------------------------------
  alpha Z        PSCENC =        21.16086270
  Ewald energy   TEWEN  =     25018.31690205
  -Hartree energ DENC   =    -30874.82406943
  -exchange      EXHF   =         0.00000000
  -V(xc)+E(xc)   XCENC  =       616.43803657
  PAW double counting   =     18232.58439162   -18263.10319611
  entropy T*S    EENTRO =        -0.00000000
  eigenvalues    EBANDS =     -2312.00620164
  atomic energy  EATOM  =      7153.59493031
  Solvation  Ediel_sol  =         0.00000000
  ---------------------------------------------------
  free energy    TOTEN  =      -407.83834394 eV

  energy without entropy =     -407.83834394  energy(sigma->0) =     -407.83834394


--------------------------------------------------------------------------------------------------------




--------------------------------------- Iteration      1(  17)  ---------------------------------------


    POTLOK:  cpu time    0.3197: real time    0.3696
    SETDIJ:  cpu time    0.0063: real time    0.0064
     EDDAV:  cpu time    1.5342: real time    1.5447
       DOS:  cpu time    0.0007: real time    0.0007
    CHARGE:  cpu time    0.2238: real time    0.2249
    MIXING:  cpu time    0.0121: real time    0.0122
    --------------------------------------------
      LOOP:  cpu time    2.0968: real time    2.1584

 eigenvalue-minimisations  :   692
 total energy-change (2. order) :-0.1142406E+00  (-0.2161357E-02)
 number of electron     187.9999941 magnetization       3.0470303
 augmentation part        8.8703968 magnetization       2.5124304

 Broyden mixing:
  rms(total) = 0.21853E+00    rms(broyden)= 0.21853E+00
  rms(prec ) = 0.23415E+00
  weight for this iteration     100.00

 eigenvalues of (default mixing * dielectric matrix)
  average eigenvalue GAMMA=   1.0481
  2.3425  2.3425  1.5016  1.5016  0.9087  0.9087  0.2664  0.2664  0.7933  0.6188
  0.6188  0.5083

 Free energy of the ion-electron system (eV)
  ---------------------------------------------------
  alpha Z        PSCENC =        21.16086270
  Ewald energy   TEWEN  =     25018.31690205
  -Hartree energ DENC   =    -30884.11342929
  -exchange      EXHF   =         0.00000000
  -V(xc)+E(xc)   XCENC  =       616.35423313
  PAW double counting   =     18233.35647072   -18263.92499241
  entropy T*S    EENTRO =        -0.00000000
  eigenvalues    EBANDS =     -2302.69756170
  atomic energy  EATOM  =      7153.59493031
  Solvation  Ediel_sol  =         0.00000000
  ---------------------------------------------------
  free energy    TOTEN  =      -407.95258450 eV

  energy without entropy =     -407.95258450  energy(sigma->0) =     -407.95258450


--------------------------------------------------------------------------------------------------------




--------------------------------------- Iteration      1(  18)  ---------------------------------------


    POTLOK:  cpu time    0.2623: real time    0.3059
    SETDIJ:  cpu time    0.0063: real time    0.0064
     EDDAV:  cpu time    1.6098: real time    1.6207
       DOS:  cpu time    0.0007: real time    0.0007
    CHARGE:  cpu time    0.2227: real time    0.2237
    MIXING:  cpu time    0.0126: real time    0.0127
    --------------------------------------------
      LOOP:  cpu time    2.1145: real time    2.1700

 eigenvalue-minimisations  :   716
 total energy-change (2. order) :-0.7165843E-01  (-0.1013993E-02)
 number of electron     187.9999941 magnetization       2.8381682
 augmentation part        8.8493351 magnetization       2.2989171

 Broyden mixing:
  rms(total) = 0.18319E+00    rms(broyden)= 0.18319E+00
  rms(prec ) = 0.19694E+00
  weight for this iteration     100.00

 eigenvalues of (default mixing * dielectric matrix)
  average eigenvalue GAMMA=   1.0778
  1.9965  1.9965  2.0063  2.0063  0.9950  0.9950  0.2664  0.2664  0.9645  0.7036
  0.7036  0.5270  0.5848

 Free energy of the ion-electron system (eV)
  ---------------------------------------------------
  alpha Z        PSCENC =        21.16086270
  Ewald energy   TEWEN  =     25018.31690205
  -Hartree energ DENC   =    -30889.07699487
  -exchange      EXHF   =         0.00000000
  -V(xc)+E(xc)   XCENC  =       616.27088915
  PAW double counting   =     18234.73061242   -18265.29582513
  entropy T*S    EENTRO =        -0.00000000
  eigenvalues    EBANDS =     -2297.72561956
  atomic energy  EATOM  =      7153.59493031
  Solvation  Ediel_sol  =         0.00000000
  ---------------------------------------------------
  free energy    TOTEN  =      -408.02424292 eV

  energy without entropy =     -408.02424292  energy(sigma->0) =     -408.02424292


--------------------------------------------------------------------------------------------------------




--------------------------------------- Iteration      1(  19)  ---------------------------------------


    POTLOK:  cpu time    0.3674: real time    0.3699
    SETDIJ:  cpu time    0.0063: real time    0.0064
     EDDAV:  cpu time    1.4871: real time    1.4967
       DOS:  cpu time    0.0007: real time    0.0007
    CHARGE:  cpu time    0.2260: real time    0.2270
    MIXING:  cpu time    0.0165: real time    0.0165
    --------------------------------------------
      LOOP:  cpu time    2.1039: real time    2.1172

 eigenvalue-minimisations  :   648
 total energy-change (2. order) :-0.1673604E+00  (-0.2953390E-02)
 number of electron     187.9999941 magnetization       2.4815033
 augmentation part        8.8086832 magnetization       1.9360623

 Broyden mixing:
  rms(total) = 0.11200E+00    rms(broyden)= 0.11200E+00
  rms(prec ) = 0.12151E+00
  weight for this iteration     100.00

 eigenvalues of (default mixing * dielectric matrix)
  average eigenvalue GAMMA=   1.2348
  3.1133  3.1133  2.0735  2.0735  1.0693  1.0693  0.2664  0.2664  0.8765  0.8765
  0.5183  0.6817  0.6448  0.6448

 Free energy of the ion-electron system (eV)
  ---------------------------------------------------
  alpha Z        PSCENC =        21.16086270
  Ewald energy   TEWEN  =     25018.31690205
  -Hartree energ DENC   =    -30899.35051695
  -exchange      EXHF   =         0.00000000
  -V(xc)+E(xc)   XCENC  =       616.06272071
  PAW double counting   =     18226.45572324   -18256.94720818
  entropy T*S    EENTRO =        -0.00000000
  eigenvalues    EBANDS =     -2287.48501720
  atomic energy  EATOM  =      7153.59493031
  Solvation  Ediel_sol  =         0.00000000
  ---------------------------------------------------
  free energy    TOTEN  =      -408.19160333 eV

  energy without entropy =     -408.19160333  energy(sigma->0) =     -408.19160333


--------------------------------------------------------------------------------------------------------




--------------------------------------- Iteration      1(  20)  ---------------------------------------


    POTLOK:  cpu time    0.3509: real time    0.3532
    SETDIJ:  cpu time    0.0062: real time    0.0063
     EDDAV:  cpu time    1.4949: real time    1.5047
       DOS:  cpu time    0.0007: real time    0.0007
    CHARGE:  cpu time    0.2232: real time    0.2245
    MIXING:  cpu time    0.0163: real time    0.0164
    --------------------------------------------
      LOOP:  cpu time    2.0922: real time    2.1057

 eigenvalue-minimisations  :   668
 total energy-change (2. order) :-0.2499417E+00  (-0.8658596E-02)
 number of electron     187.9999941 magnetization       2.4247566
 augmentation part        8.7386519 magnetization       1.8810038

 Broyden mixing:
  rms(total) = 0.27408E-01    rms(broyden)= 0.27353E-01
  rms(prec ) = 0.28756E-01
  weight for this iteration     100.00

 eigenvalues of (default mixing * dielectric matrix)
  average eigenvalue GAMMA=   1.2675
  3.1982  3.1982  2.3308  2.3308  1.2254  1.2254  0.2664  0.2664  0.9121  0.9121
  0.5201  0.6551  0.6551  0.6891  0.6278

 Free energy of the ion-electron system (eV)
  ---------------------------------------------------
  alpha Z        PSCENC =        21.16086270
  Ewald energy   TEWEN  =     25018.31690205
  -Hartree energ DENC   =    -30916.44582036
  -exchange      EXHF   =         0.00000000
  -V(xc)+E(xc)   XCENC  =       615.84920793
  PAW double counting   =     18207.32233009   -18237.68553733
  entropy T*S    EENTRO =        -0.00000000
  eigenvalues    EBANDS =     -2270.55442039
  atomic energy  EATOM  =      7153.59493031
  Solvation  Ediel_sol  =         0.00000000
  ---------------------------------------------------
  free energy    TOTEN  =      -408.44154500 eV

  energy without entropy =     -408.44154500  energy(sigma->0) =     -408.44154500


--------------------------------------------------------------------------------------------------------




--------------------------------------- Iteration      1(  21)  ---------------------------------------


    POTLOK:  cpu time    0.3242: real time    0.3264
    SETDIJ:  cpu time    0.0063: real time    0.0063
     EDDAV:  cpu time    1.2953: real time    1.3049
       DOS:  cpu time    0.0007: real time    0.0007
    CHARGE:  cpu time    0.2248: real time    0.2259
    MIXING:  cpu time    0.0151: real time    0.0152
    --------------------------------------------
      LOOP:  cpu time    1.8663: real time    1.8795

 eigenvalue-minimisations  :   556
 total energy-change (2. order) :-0.6436898E-01  (-0.1962432E-02)
 number of electron     187.9999941 magnetization       2.3747827
 augmentation part        8.7363164 magnetization       1.8317418

 Broyden mixing:
  rms(total) = 0.18713E-01    rms(broyden)= 0.18706E-01
  rms(prec ) = 0.20083E-01
[...]
 -----------------------------------------------------------------------------------------------
   -.201E+03 0.263E+03 0.331E-06   0.203E+03 -.262E+03 0.119E-16   0.597E-01 0.154E+01 0.414E-24   -.971E-07 0.141E-05 -.598E-13
   0.918E+01 -.232E+03 0.375E-07   -.965E+01 0.233E+03 0.157E-16   -.131E+00 -.389E+00 0.000E+00   0.818E-06 0.172E-05 0.103E-12
   -.943E+02 0.304E+03 -.593E-07   0.948E+02 -.304E+03 0.570E-16   -.402E+00 0.173E+01 0.000E+00   0.124E-06 -.161E-06 -.135E-12
   0.120E+03 -.211E+03 0.147E-06   -.120E+03 0.212E+03 -.957E-17   0.103E+00 0.182E+00 0.000E+00   -.190E-05 0.902E-06 0.717E-13
   -.230E+03 0.915E+02 0.693E-07   0.231E+03 -.912E+02 -.255E-16   0.184E+00 0.114E+00 0.000E+00   0.118E-05 -.176E-05 -.250E-13
   -.107E+03 0.127E+03 0.309E-06   0.110E+03 -.128E+03 -.450E-16   -.323E+01 0.350E+00 0.000E+00   0.576E-05 -.563E-05 -.818E-13
   0.476E+02 0.145E+03 -.466E-07   -.495E+02 -.147E+03 0.345E-17   0.363E+01 0.317E+01 0.000E+00   -.281E-05 -.556E-05 -.120E-12
   0.162E+03 0.174E+03 0.314E-06   -.163E+03 -.175E+03 0.139E-17   0.225E+00 0.270E+00 0.000E+00   0.279E-06 0.458E-06 -.144E-12
   -.240E+03 -.168E+02 0.789E-07   0.242E+03 0.165E+02 -.182E-16   -.358E+00 -.155E+00 0.000E+00   0.179E-05 0.108E-05 0.562E-13
   0.203E+02 0.313E+03 -.346E-06   -.216E+02 -.314E+03 0.192E-16   -.677E+00 0.139E+01 0.000E+00   0.613E-07 0.873E-06 -.156E-12
   -.271E+03 -.181E+03 -.126E-06   0.272E+03 0.181E+03 -.234E-16   -.707E+00 -.130E+01 0.000E+00   -.983E-06 -.104E-05 0.140E-12
   -.105E+03 -.112E+03 -.819E-07   0.105E+03 0.113E+03 -.156E-16   -.710E+00 -.818E+00 0.000E+00   0.289E-05 0.335E-05 0.947E-13
   0.142E+03 -.894E+02 -.107E-06   -.144E+03 0.923E+02 -.297E-16   0.686E+00 -.315E+01 0.000E+00   -.616E-05 0.505E-05 0.232E-14
   0.322E+03 -.565E+02 -.350E-06   -.322E+03 0.570E+02 0.184E-18   0.171E+01 -.223E+00 -.207E-24   -.293E-06 0.187E-06 0.332E-14
   -.156E+03 -.279E+03 0.137E-06   0.156E+03 0.280E+03 -.738E-16   -.124E+01 -.859E+00 0.000E+00   -.776E-06 -.132E-05 0.160E-12
   0.321E+03 0.536E+02 -.362E-07   -.322E+03 -.550E+02 -.677E-16   0.142E+01 -.539E+00 0.000E+00   0.749E-06 -.123E-06 -.712E-13
   0.271E+03 0.181E+03 0.126E-06   -.272E+03 -.181E+03 -.928E-17   0.707E+00 0.130E+01 0.000E+00   0.983E-06 0.104E-05 -.121E-12
   0.291E+03 -.163E+03 0.103E-06   -.291E+03 0.165E+03 0.101E-15   0.146E+01 0.265E+00 0.000E+00   0.134E-05 0.115E-06 0.535E-13
   0.145E+03 0.620E+02 0.127E-06   -.146E+03 -.641E+02 0.149E-16   0.273E+01 0.392E+01 0.000E+00   -.508E-05 -.342E-05 -.861E-13
   0.201E+03 -.263E+03 -.331E-06   -.203E+03 0.262E+03 -.274E-17   -.597E-01 -.154E+01 -.414E-24   0.971E-07 -.141E-05 0.620E-13
   0.240E+03 0.168E+02 -.789E-07   -.242E+03 -.165E+02 -.538E-16   0.358E+00 0.155E+00 0.000E+00   -.179E-05 -.108E-05 -.532E-13
   -.120E+03 0.211E+03 -.146E-06   0.120E+03 -.212E+03 -.125E-16   -.103E+00 -.182E+00 0.000E+00   0.190E-05 -.902E-06 -.104E-12
   -.918E+01 0.232E+03 -.375E-07   0.965E+01 -.233E+03 0.478E-16   0.131E+00 0.389E+00 0.000E+00   -.818E-06 -.172E-05 -.144E-12
   0.156E+03 0.279E+03 -.137E-06   -.156E+03 -.280E+03 0.473E-16   0.124E+01 0.859E+00 0.000E+00   0.776E-06 0.132E-05 -.165E-12
   -.322E+03 0.565E+02 0.350E-06   0.322E+03 -.570E+02 -.400E-17   -.171E+01 0.223E+00 0.000E+00   0.293E-06 -.187E-06 0.204E-13
   0.105E+03 0.112E+03 0.818E-07   -.105E+03 -.113E+03 -.283E-17   0.710E+00 0.818E+00 0.000E+00   -.289E-05 -.335E-05 -.126E-12
   -.321E+03 -.536E+02 0.363E-07   0.322E+03 0.550E+02 0.554E-17   -.142E+01 0.539E+00 0.000E+00   -.749E-06 0.123E-06 0.106E-12
   -.142E+03 0.894E+02 0.107E-06   0.144E+03 -.923E+02 0.413E-16   -.686E+00 0.315E+01 0.000E+00   0.616E-05 -.505E-05 -.346E-13
   -.145E+03 -.620E+02 -.127E-06   0.146E+03 0.641E+02 0.536E-17   -.273E+01 -.392E+01 0.000E+00   0.508E-05 0.342E-05 0.549E-13
   -.162E+03 -.174E+03 -.314E-06   0.163E+03 0.175E+03 0.187E-16   -.225E+00 -.270E+00 0.000E+00   -.279E-06 -.458E-06 0.135E-12
   -.476E+02 -.145E+03 0.467E-07   0.495E+02 0.147E+03 -.666E-18   -.363E+01 -.317E+01 0.000E+00   0.281E-05 0.556E-05 0.777E-13
   0.107E+03 -.127E+03 -.309E-06   -.110E+03 0.128E+03 0.189E-16   0.323E+01 -.350E+00 0.000E+00   -.576E-05 0.563E-05 0.429E-13
   0.230E+03 -.915E+02 -.693E-07   -.231E+03 0.912E+02 -.122E-15   -.184E+00 -.114E+00 0.000E+00   -.118E-05 0.176E-05 0.231E-13
   -.203E+02 -.313E+03 0.346E-06   0.216E+02 0.314E+03 -.211E-16   0.677E+00 -.139E+01 0.000E+00   -.613E-07 -.873E-06 0.140E-12
   -.291E+03 0.163E+03 -.103E-06   0.291E+03 -.165E+03 0.660E-17   -.146E+01 -.265E+00 0.000E+00   -.134E-05 -.115E-06 -.312E-13
   0.943E+02 -.304E+03 0.593E-07   -.948E+02 0.304E+03 -.437E-17   0.402E+00 -.173E+01 0.000E+00   -.124E-06 0.161E-06 0.982E-13
   0.129E-07 -.801E-07 0.106E-10   -.564E-06 0.186E-05 -.252E-15   0.000E+00 0.000E+00 0.000E+00   -.294E-12 0.174E-13 -.443E-13
   -.855E+02 -.712E+02 -.256E-07   0.894E+02 0.756E+02 0.104E-16   -.382E+01 -.433E+01 0.000E+00   -.263E-06 -.261E-06 0.388E-13
   0.111E+03 0.112E+01 -.673E-07   -.117E+03 0.606E-01 0.825E-17   0.564E+01 -.119E+01 0.000E+00   0.543E-06 -.789E-07 -.100E-13
   -.355E+02 0.108E+03 -.248E-07   0.374E+02 -.113E+03 0.158E-16   -.183E+01 0.548E+01 0.000E+00   -.184E-06 0.462E-06 -.266E-13
   0.562E+02 -.970E+02 -.193E-07   -.581E+02 0.103E+03 0.866E-18   0.182E+01 -.548E+01 0.000E+00   0.255E-06 -.717E-06 0.147E-13
   0.114E+03 -.221E+02 0.454E-07   -.120E+03 0.233E+02 0.206E-16   0.566E+01 -.119E+01 0.000E+00   0.395E-06 -.970E-07 0.583E-14
   -.109E+02 0.107E+03 -.198E-07   0.128E+02 -.112E+03 0.832E-17   -.183E+01 0.547E+01 -.969E-26   -.107E-06 0.572E-06 -.335E-13
   -.562E+02 0.970E+02 0.193E-07   0.581E+02 -.103E+03 -.133E-16   -.182E+01 0.548E+01 0.000E+00   -.255E-06 0.717E-06 -.108E-13
   -.633E+02 -.899E+02 0.269E-07   0.672E+02 0.943E+02 0.106E-16   -.386E+01 -.429E+01 0.129E-25   -.167E-06 -.323E-06 0.418E-13
   0.355E+02 -.108E+03 0.248E-07   -.374E+02 0.113E+03 -.510E-17   0.183E+01 -.548E+01 0.000E+00   0.184E-06 -.462E-06 0.234E-13
   -.105E+03 0.430E+02 0.861E-11   0.111E+03 -.442E+02 0.127E-16   -.565E+01 0.118E+01 0.000E+00   -.655E-06 0.177E-06 -.134E-14
   0.633E+02 0.899E+02 -.269E-07   -.672E+02 -.943E+02 -.234E-17   0.386E+01 0.429E+01 -.129E-25   0.167E-06 0.323E-06 -.401E-13
   -.114E+03 0.221E+02 -.454E-07   0.120E+03 -.233E+02 -.620E-17   -.566E+01 0.119E+01 -.129E-25   -.395E-06 0.970E-07 0.882E-14
   0.855E+02 0.712E+02 0.256E-07   -.894E+02 -.756E+02 -.419E-18   0.382E+01 0.433E+01 0.000E+00   0.263E-06 0.261E-06 -.314E-13
   -.111E+03 -.112E+01 0.673E-07   0.117E+03 -.606E-01 -.196E-17   -.564E+01 0.119E+01 0.000E+00   -.543E-06 0.789E-07 0.255E-13
   0.109E+02 -.107E+03 0.198E-07   -.128E+02 0.112E+03 -.752E-17   0.183E+01 -.547E+01 0.000E+00   0.107E-06 -.572E-06 0.328E-13
   0.105E+03 -.430E+02 -.175E-10   -.111E+03 0.442E+02 -.514E-17   0.565E+01 -.118E+01 0.000E+00   0.655E-06 -.177E-06 0.142E-13
   -.109E+03 -.331E+02 0.836E-06   0.913E+02 0.384E+02 -.517E-16   0.176E+02 -.540E+01 0.000E+00   0.124E-04 0.182E-06 0.197E-13
   -.209E+02 -.107E+03 -.246E-06   0.282E+02 0.903E+02 0.500E-16   -.738E+01 0.169E+02 0.000E+00   -.121E-05 0.125E-04 0.542E-13
   0.209E+02 0.107E+03 0.246E-06   -.282E+02 -.903E+02 -.713E-16   0.738E+01 -.169E+02 0.000E+00   0.121E-05 -.125E-04 -.115E-12
   0.109E+03 0.331E+02 -.836E-06   -.913E+02 -.384E+02 0.150E-15   -.176E+02 0.540E+01 0.000E+00   -.124E-04 -.182E-06 -.707E-13
 -----------------------------------------------------------------------------------------------
   0.115E-05 -.596E-06 0.320E-09   -.981E-12 -.320E-12 -.254E-15   0.000E+00 0.178E-14 -.229E-24   0.328E-12 -.223E-12 -.318E-12
 
 
 POSITION                                       TOTAL-FORCE (eV/Angst)
 -----------------------------------------------------------------------------------
     15.21106      7.18304      8.00000         1.884875      1.755256      0.000000
     12.52817     15.30210      8.00000        -0.578772      0.822638      0.000000
     12.86729      6.40856      8.00000         0.066334      1.332029      0.000000
     10.18440     14.52761      8.00000         0.331461      1.198987      0.000000
     15.71222      9.60005      8.00000         1.168418      0.456489      0.000000
     13.36845      8.82556      8.00000        -0.104721     -0.866386      0.000000
     11.02468      8.05108      8.00000         1.709336      1.272480      0.000000
      8.68092      7.27659      8.00000        -0.589932     -0.641791      0.000000
     16.21338     12.01705      8.00000         0.898211     -0.461677      0.000000
     10.52352      5.63407      8.00000        -1.941801      0.638578      0.000000
     16.71454     14.43406      8.00000         0.309452     -1.796758      0.000000
     14.37077     13.65958      8.00000        -0.702655     -0.809594      0.000000
      9.68324     12.11061      8.00000        -0.880211     -0.184646      0.000000
      7.33947     11.33612      8.00000         1.254049      0.196079      0.000000
     14.87194     16.07658      8.00000        -1.845437      0.093843      0.000000
      6.83831      8.91912      8.00000         0.818980     -1.881722      0.000000
      7.28546      7.56594      8.00000        -0.309452      1.796758     -0.000000
      7.84063     13.75313      8.00000         1.456787      2.102499      0.000000
      9.18208      9.69360      8.00000         1.064080      1.804175      0.000000
      8.78894     14.81696      8.00000        -1.884875     -1.755256      0.000000
      7.78662      9.98295      8.00000        -0.898211      0.461677     -0.000000
     13.81560      7.47239      8.00000        -0.331461     -1.198987      0.000000
     11.47183      6.69790      8.00000         0.578772     -0.822638     -0.000000
      9.12806      5.92342      8.00000         1.845437     -0.093843      0.000000
     16.66053     10.66388      8.00000        -1.254049     -0.196079      0.000000
      9.62923      8.34042      8.00000         0.702655      0.809594      0.000000
     17.16169     13.08088      8.00000        -0.818980      1.881722      0.000000
     14.31676      9.88939      8.00000         0.880211      0.184646      0.000000
     14.81792     12.30640      8.00000        -1.064080     -1.804175     -0.000000
     15.31908     14.72341      8.00000         0.589932      0.641791      0.000000
     12.97532     13.94892      8.00000        -1.709336     -1.272480     -0.000000
     10.63155     13.17444      8.00000         0.104721      0.866386      0.000000
      8.28778     12.39995      8.00000        -1.168418     -0.456489     -0.000000
     13.47648     16.36593      8.00000         1.941801     -0.638578      0.000000
     16.15937      8.24687      8.00000        -1.456787     -2.102499      0.000000
     11.13271     15.59144      8.00000        -0.066334     -1.332029     -0.000000
     12.00000     11.00000      8.00000         0.000000      0.000000      0.000000
     17.43109     15.25572      8.00000        -0.017499     -0.010306     -0.000000
      5.77363      9.15280      8.00000         0.010085      0.001927      0.000000
     13.21077      5.37471      8.00000         0.001340      0.004768     -0.000000
      8.45374     15.85466      8.00000         0.006700     -0.012649     -0.000000
      6.27311     11.55902      8.00000         0.003745      0.001804      0.000000
     10.87752      4.60313      8.00000         0.001732      0.011833      0.000000
     15.54626      6.14534      8.00000        -0.006700      0.012649      0.000000
     15.60619     16.88245      8.00000        -0.008798     -0.018688      0.000000
     10.78923     16.62529      8.00000        -0.001340     -0.004768      0.000000
     17.22862      8.03264      8.00000        -0.013566      0.005441      0.000000
      8.39381      5.11755      8.00000         0.008798      0.018688      0.000000
     17.72689     10.44098      8.00000        -0.003745     -0.001804      0.000000
      6.56891      6.74428      8.00000         0.017499      0.010306      0.000000
     18.22637     12.84720      8.00000        -0.010085     -0.001927     -0.000000
     13.12248     17.39687      8.00000        -0.001732     -0.011833      0.000000
      6.77138     13.96736      8.00000         0.013566     -0.005441      0.000000
     13.90844     11.21986      8.00000         0.133375     -0.018986      0.000000
     12.00000     12.92106      8.00000        -0.035439      0.131267     -0.000000
     12.00000      9.07894      8.00000         0.035439     -0.131267      0.000000
     10.09156     10.78014      8.00000        -0.133375      0.018986      0.000000
 -----------------------------------------------------------------------------------
    total drift:                                0.000001     -0.000001      0.000000


--------------------------------------------------------------------------------------------------------



  FREE ENERGIE OF THE ION-ELECTRON SYSTEM (eV)
  ---------------------------------------------------
  free  energy   TOTEN  =      -422.36133410 eV

  energy  without entropy=     -422.36133410  energy(sigma->0) =     -422.36133410
 


--------------------------------------------------------------------------------------------------------


    POTLOK:  cpu time    0.2727: real time    0.2747


--------------------------------------------------------------------------------------------------------


 writing wavefunctions
     LOOP+:  cpu time  120.4481: real time  124.3087
    4ORBIT:  cpu time    0.0000: real time    0.0000
 


 total charge     
 
# of ion       s       p       d       tot
------------------------------------------
    1        0.869   1.729   0.000   2.597
    2        0.871   1.772   0.000   2.643
    3        0.870   1.738   0.000   2.607
    4        0.872   1.769   0.000   2.641
    5        0.872   1.769   0.000   2.641
    6        0.863   1.756   0.000   2.619
    7        0.858   1.720   0.000   2.578
    8        0.869   1.769   0.000   2.637
    9        0.871   1.772   0.000   2.643
   10        0.867   1.734   0.000   2.601
   11        0.868   1.730   0.000   2.597
   12        0.865   1.799   0.000   2.664
   13        0.862   1.756   0.000   2.619
   14        0.869   1.738   0.000   2.607
   15        0.868   1.730   0.000   2.598
   16        0.867   1.734   0.000   2.601
   17        0.868   1.730   0.000   2.597
   18        0.869   1.729   0.000   2.597
   19        0.858   1.720   0.000   2.578
   20        0.869   1.729   0.000   2.597
   21        0.871   1.772   0.000   2.643
   22        0.872   1.769   0.000   2.641
   23        0.871   1.772   0.000   2.643
   24        0.868   1.730   0.000   2.598
   25        0.869   1.738   0.000   2.607
   26        0.865   1.799   0.000   2.664
   27        0.867   1.734   0.000   2.601
   28        0.862   1.756   0.000   2.619
   29        0.858   1.720   0.000   2.578
   30        0.869   1.769   0.000   2.637
   31        0.858   1.720   0.000   2.578
   32        0.863   1.756   0.000   2.619
   33        0.872   1.769   0.000   2.641
   34        0.867   1.734   0.000   2.601
   35        0.869   1.729   0.000   2.597
   36        0.870   1.738   0.000   2.607
   37        0.438   0.588   6.309   7.336
   38        0.650   0.045   0.000   0.695
   39        0.650   0.045   0.000   0.695
   40        0.650   0.046   0.000   0.695
   41        0.650   0.045   0.000   0.695
   42        0.650   0.046   0.000   0.695
   43        0.650   0.045   0.000   0.695
   44        0.650   0.045   0.000   0.695
   45        0.650   0.045   0.000   0.695
   46        0.650   0.046   0.000   0.695
   47        0.650   0.045   0.000   0.695
   48        0.650   0.045   0.000   0.695
   49        0.650   0.046   0.000   0.695
   50        0.650   0.045   0.000   0.695
   51        0.650   0.045   0.000   0.695
   52        0.650   0.045   0.000   0.695
   53        0.650   0.045   0.000   0.695
   54        1.228   2.636   0.000   3.864
   55        1.228   2.636   0.000   3.864
   56        1.228   2.636   0.000   3.864
   57        1.228   2.636   0.000   3.864
--------------------------------------------------
tot         46.959  74.785   6.309 128.053
 


 magnetization (x)
 
# of ion       s       p       d       tot
------------------------------------------
    1       -0.000  -0.000   0.000  -0.000
    2       -0.000  -0.001   0.000  -0.001
    3        0.000   0.000   0.000   0.000
    4       -0.000  -0.001   0.000  -0.002
    5       -0.000  -0.001   0.000  -0.002
    6        0.000   0.003   0.000   0.003
    7       -0.000  -0.004   0.000  -0.005
    8        0.000   0.001   0.000   0.001
    9       -0.000  -0.001   0.000  -0.001
   10        0.000   0.001   0.000   0.001
   11       -0.000   0.000   0.000   0.000
   12        0.000   0.001   0.000   0.001
   13        0.000   0.003   0.000   0.003
   14        0.000   0.000   0.000   0.000
   15       -0.000   0.000   0.000   0.000
   16        0.000   0.001   0.000   0.001
   17       -0.000   0.000   0.000   0.000
   18       -0.000  -0.000   0.000  -0.000
   19       -0.000  -0.004   0.000  -0.005
   20       -0.000  -0.000   0.000  -0.000
   21       -0.000  -0.001   0.000  -0.001
   22       -0.000  -0.001   0.000  -0.002
   23       -0.000  -0.001   0.000  -0.001
   24       -0.000   0.000   0.000   0.000
   25        0.000   0.000   0.000   0.000
   26        0.000   0.001   0.000   0.001
   27        0.000   0.001   0.000   0.001
   28        0.000   0.003   0.000   0.003
   29       -0.000  -0.004   0.000  -0.005
   30        0.000   0.001   0.000   0.001
   31       -0.000  -0.004   0.000  -0.005
   32        0.000   0.003   0.000   0.003
   33       -0.000  -0.001   0.000  -0.002
   34        0.000   0.001   0.000   0.001
   35       -0.000  -0.000   0.000  -0.000
   36        0.000   0.000   0.000   0.000
   37        0.035   0.017   1.978   2.029
   38       -0.000   0.000   0.000  -0.000
   39       -0.000   0.000   0.000  -0.000
   40        0.000  -0.000   0.000  -0.000
   41       -0.000  -0.000   0.000  -0.000
   42        0.000  -0.000   0.000  -0.000
   43       -0.000   0.000   0.000  -0.000
   44       -0.000  -0.000   0.000  -0.000
   45       -0.000   0.000   0.000  -0.000
   46        0.000  -0.000   0.000  -0.000
   47       -0.000  -0.000   0.000  -0.000
   48       -0.000   0.000   0.000  -0.000
   49        0.000  -0.000   0.000  -0.000
   50       -0.000   0.000   0.000  -0.000
   51       -0.000   0.000   0.000  -0.000
   52       -0.000   0.000   0.000  -0.000
   53       -0.000  -0.000   0.000  -0.000
   54       -0.004  -0.025   0.000  -0.029
   55       -0.004  -0.025   0.000  -0.029
   56       -0.004  -0.025   0.000  -0.029
   57       -0.004  -0.025   0.000  -0.029
--------------------------------------------------
tot          0.015  -0.089   1.978   1.903
 

 total amount of memory used by VASP MPI-rank0    70515. kBytes
=======================================================================

   base      :      30000. kBytes
   nonlr-proj:        130. kBytes
   fftplans  :       8304. kBytes
   grid      :      25267. kBytes
   one-center:         31. kBytes
   wavefun   :       6783. kBytes
 
  
  
 General timing and accounting informations for this job:
 ========================================================
  
                  Total CPU time used (sec):      147.739
                            User time (sec):      139.469
                          System time (sec):        8.270
                         Elapsed time (sec):      153.172
  
                   Maximum memory used (kb):      419920.
                   Average memory used (kb):           0.
  
                          Minor page faults:       249762
                          Major page faults:           85
                 Voluntary context switches:         3609
